
                                 *****************
                                 * O   R   C   A *
                                 *****************

                                            #,                                       
                                            ###                                      
                                            ####                                     
                                            #####                                    
                                            ######                                   
                                           ########,                                 
                                     ,,################,,,,,                         
                               ,,#################################,,                 
                          ,,##########################################,,             
                       ,#########################################, ''#####,          
                    ,#############################################,,   '####,        
                  ,##################################################,,,,####,       
                ,###########''''           ''''###############################       
              ,#####''   ,,,,##########,,,,          '''####'''          '####       
            ,##' ,,,,###########################,,,                        '##       
           ' ,,###''''                  '''############,,,                           
         ,,##''                                '''############,,,,        ,,,,,,###''
      ,#''                                            '''#######################'''  
     '                                                          ''''####''''         
             ,#######,   #######,   ,#######,      ##                                
            ,#'     '#,  ##    ##  ,#'     '#,    #''#        ######   ,####,        
            ##       ##  ##   ,#'  ##            #'  '#       #        #'  '#        
            ##       ##  #######   ##           ,######,      #####,   #    #        
            '#,     ,#'  ##    ##  '#,     ,#' ,#      #,         ##   #,  ,#        
             '#######'   ##     ##  '#######'  #'      '#     #####' # '####'        



                  #######################################################
                  #                        -***-                        #
                  #          Department of theory and spectroscopy      #
                  #    Directorship and core code : Frank Neese         #
                  #        Max Planck Institute fuer Kohlenforschung    #
                  #                Kaiser Wilhelm Platz 1               #
                  #                 D-45470 Muelheim/Ruhr               #
                  #                      Germany                        #
                  #                                                     #
                  #                  All rights reserved                #
                  #                        -***-                        #
                  #######################################################


                         Program Version 5.0.4 -  RELEASE  -


 With contributions from (in alphabetic order):
   Daniel Aravena         : Magnetic Suceptibility
   Michael Atanasov       : Ab Initio Ligand Field Theory (pilot matlab implementation)
   Alexander A. Auer      : GIAO ZORA, VPT2 properties, NMR spectrum
   Ute Becker             : Parallelization
   Giovanni Bistoni       : ED, misc. LED, open-shell LED, HFLD
   Martin Brehm           : Molecular dynamics
   Dmytro Bykov           : SCF Hessian
   Vijay G. Chilkuri      : MRCI spin determinant printing, contributions to CSF-ICE
   Dipayan Datta          : RHF DLPNO-CCSD density
   Achintya Kumar Dutta   : EOM-CC, STEOM-CC
   Dmitry Ganyushin       : Spin-Orbit,Spin-Spin,Magnetic field MRCI
   Miquel Garcia          : C-PCM and meta-GGA Hessian, CC/C-PCM, Gaussian charge scheme
   Yang Guo               : DLPNO-NEVPT2, F12-NEVPT2, CIM, IAO-localization
   Andreas Hansen         : Spin unrestricted coupled pair/coupled cluster methods
   Benjamin Helmich-Paris : MC-RPA, TRAH-SCF, COSX integrals
   Lee Huntington         : MR-EOM, pCC
   Robert Izsak           : Overlap fitted RIJCOSX, COSX-SCS-MP3, EOM
   Marcus Kettner         : VPT2
   Christian Kollmar      : KDIIS, OOCD, Brueckner-CCSD(T), CCSD density, CASPT2, CASPT2-K
   Simone Kossmann        : Meta GGA functionals, TD-DFT gradient, OOMP2, MP2 Hessian
   Martin Krupicka        : Initial AUTO-CI
   Lucas Lang             : DCDCAS
   Marvin Lechner         : AUTO-CI (C++ implementation), FIC-MRCC
   Dagmar Lenk            : GEPOL surface, SMD
   Dimitrios Liakos       : Extrapolation schemes; Compound Job, initial MDCI parallelization
   Dimitrios Manganas     : Further ROCIS development; embedding schemes
   Dimitrios Pantazis     : SARC Basis sets
   Anastasios Papadopoulos: AUTO-CI, single reference methods and gradients
   Taras Petrenko         : DFT Hessian,TD-DFT gradient, ASA, ECA, R-Raman, ABS, FL, XAS/XES, NRVS
   Peter Pinski           : DLPNO-MP2, DLPNO-MP2 Gradient
   Christoph Reimann      : Effective Core Potentials
   Marius Retegan         : Local ZFS, SOC
   Christoph Riplinger    : Optimizer, TS searches, QM/MM, DLPNO-CCSD(T), (RO)-DLPNO pert. Triples
   Tobias Risthaus        : Range-separated hybrids, TD-DFT gradient, RPA, STAB
   Michael Roemelt        : Original ROCIS implementation
   Masaaki Saitow         : Open-shell DLPNO-CCSD energy and density
   Barbara Sandhoefer     : DKH picture change effects
   Avijit Sen             : IP-ROCIS
   Kantharuban Sivalingam : CASSCF convergence, NEVPT2, FIC-MRCI
   Bernardo de Souza      : ESD, SOC TD-DFT
   Georgi Stoychev        : AutoAux, RI-MP2 NMR, DLPNO-MP2 response
   Willem Van den Heuvel  : Paramagnetic NMR
   Boris Wezisla          : Elementary symmetry handling
   Frank Wennmohs         : Technical directorship


 We gratefully acknowledge several colleagues who have allowed us to
 interface, adapt or use parts of their codes:
   Stefan Grimme, W. Hujo, H. Kruse, P. Pracht,  : VdW corrections, initial TS optimization,
                  C. Bannwarth, S. Ehlert          DFT functionals, gCP, sTDA/sTD-DF
   Ed Valeev, F. Pavosevic, A. Kumar             : LibInt (2-el integral package), F12 methods
   Garnet Chan, S. Sharma, J. Yang, R. Olivares  : DMRG
   Ulf Ekstrom                                   : XCFun DFT Library
   Mihaly Kallay                                 : mrcc  (arbitrary order and MRCC methods)
   Jiri Pittner, Ondrej Demel                    : Mk-CCSD
   Frank Weinhold                                : gennbo (NPA and NBO analysis)
   Christopher J. Cramer and Donald G. Truhlar   : smd solvation model
   Lars Goerigk                                  : TD-DFT with DH, B97 family of functionals
   V. Asgeirsson, H. Jonsson                     : NEB implementation
   FAccTs GmbH                                   : IRC, NEB, NEB-TS, DLPNO-Multilevel, CI-OPT
                                                   MM, QMMM, 2- and 3-layer-ONIOM, Crystal-QMMM,
                                                   LR-CPCM, SF, NACMEs, symmetry and pop. for TD-DFT,
                                                   nearIR, NL-DFT gradient (VV10), updates on ESD,
                                                   ML-optimized integration grids
   S Lehtola, MJT Oliveira, MAL Marques          : LibXC Library
   Liviu Ungur et al                             : ANISO software


 Your calculation uses the libint2 library for the computation of 2-el integrals
 For citations please refer to: http://libint.valeyev.net

 Your ORCA version has been built with support for libXC version: 5.1.0
 For citations please refer to: https://tddft.org/programs/libxc/

 This ORCA versions uses:
   CBLAS   interface :  Fast vector & matrix operations
   LAPACKE interface :  Fast linear algebra routines
   SCALAPACK package :  Parallel linear algebra routines
   Shared memory     :  Shared parallel matrices
   BLAS/LAPACK       :  OpenBLAS 0.3.15  USE64BITINT DYNAMIC_ARCH NO_AFFINITY Zen SINGLE_THREADED
        Core in use  :  Zen
   Copyright (c) 2011-2014, The OpenBLAS Project




***************************************
The coordinates will be read from file: molecule.xyz
***************************************


================================================================================

----- Orbital basis set information -----
Your calculation utilizes the basis: def2-SVP
   F. Weigend and R. Ahlrichs, Phys. Chem. Chem. Phys. 7, 3297 (2005).

================================================================================
                                        WARNINGS
                       Please study these warnings very carefully!
================================================================================


WARNING: Geometry Optimization
  ===> : Switching off AutoStart
         For restart on a previous wavefunction, please use MOREAD

INFO   : the flag for use of the SHARK integral package has been found!

================================================================================
                                       INPUT FILE
================================================================================
NAME = input.inp
|  1> ! HF def2-SVP TightSCF CPCM(water) OPT Freq
|  2> %geom  
|  3>    MaxIter 200
|  4> end* xyzfile -1 1 molecule.xyz
|  5> 
|  6>                          ****END OF INPUT****
================================================================================

                       *****************************
                       * Geometry Optimization Run *
                       *****************************

Geometry optimization settings:
Update method            Update   .... BFGS
Choice of coordinates    CoordSys .... Z-matrix Internals
Initial Hessian          InHess   .... Almoef's Model

Convergence Tolerances:
Energy Change            TolE     ....  5.0000e-06 Eh
Max. Gradient            TolMAXG  ....  3.0000e-04 Eh/bohr
RMS Gradient             TolRMSG  ....  1.0000e-04 Eh/bohr
Max. Displacement        TolMAXD  ....  4.0000e-03 bohr
RMS Displacement         TolRMSD  ....  2.0000e-03 bohr
Strict Convergence                ....  False
------------------------------------------------------------------------------
                        ORCA OPTIMIZATION COORDINATE SETUP
------------------------------------------------------------------------------

The optimization will be done in new redundant internal coordinates
Making redundant internal coordinates   ...  (new redundants) done
Evaluating the initial hessian          ...  (Almloef) done
Evaluating the coordinates              ...  done
Calculating the B-matrix                .... done
Calculating the G-matrix                .... done
Diagonalizing the G-matrix              .... done
The first mode is                       ....    6
The number of degrees of freedom        ....   15

    -----------------------------------------------------------------
                    Redundant Internal Coordinates


    -----------------------------------------------------------------
         Definition                    Initial Value    Approx d2E/dq
    -----------------------------------------------------------------
      1. B(C   3,O   1)                  1.2564         0.914205   
      2. B(C   3,O   0)                  1.3738         0.594002   
      3. B(C   3,C   2)                  1.4820         0.445580   
      4. B(H   4,C   2)                  1.0891         0.361316   
      5. B(H   5,C   2)                  1.1158         0.327586   
      6. B(H   6,C   2)                  1.1238         0.318077   
      7. A(H   5,C   2,H   6)          105.3600         0.281091   
      8. A(H   4,C   2,H   6)          107.8489         0.285399   
      9. A(C   3,C   2,H   4)          114.1865         0.334083   
     10. A(C   3,C   2,H   5)          109.2179         0.328707   
     11. A(H   4,C   2,H   5)          113.1023         0.286713   
     12. A(C   3,C   2,H   6)          106.5256         0.327114   
     13. A(O   1,C   3,C   2)          117.1779         0.435748   
     14. A(O   0,C   3,C   2)          124.5761         0.403508   
     15. A(O   0,C   3,O   1)          118.2460         0.456018   
     16. D(O   0,C   3,C   2,H   5)   -115.4256         0.014645   
     17. D(O   0,C   3,C   2,H   6)    131.2443         0.014645   
     18. D(O   1,C   3,C   2,H   4)   -167.6855         0.014645   
     19. D(O   1,C   3,C   2,H   5)     64.5744         0.014645   
     20. D(O   1,C   3,C   2,H   6)    -48.7557         0.014645   
     21. D(O   0,C   3,C   2,H   4)     12.3145         0.014645   
    -----------------------------------------------------------------

Number of atoms                         .... 7
Number of degrees of freedom            .... 21

         *************************************************************
         *                GEOMETRY OPTIMIZATION CYCLE   1            *
         *************************************************************
---------------------------------
CARTESIAN COORDINATES (ANGSTROEM)
---------------------------------
  O      1.437640   -0.738140    0.232040
  O      0.794950    1.419990    0.062290
  C     -0.986070   -0.090640   -0.085390
  C      0.456330    0.210150    0.073960
  H     -1.254490   -1.121660    0.140550
  H     -1.319750    0.236660   -1.098530
  H     -1.532920    0.573930    0.637230

----------------------------
CARTESIAN COORDINATES (A.U.)
----------------------------
  NO LB      ZA    FRAG     MASS         X           Y           Z
   0 O     8.0000    0    15.999    2.716746   -1.394882    0.438492
   1 O     8.0000    0    15.999    1.502238    2.683392    0.117711
   2 C     6.0000    0    12.011   -1.863402   -0.171285   -0.161364
   3 C     6.0000    0    12.011    0.862339    0.397126    0.139764
   4 H     1.0000    0     1.008   -2.370643   -2.119630    0.265601
   5 H     1.0000    0     1.008   -2.493966    0.447223   -2.075921
   6 H     1.0000    0     1.008   -2.896799    1.084571    1.204190

--------------------------------
INTERNAL COORDINATES (ANGSTROEM)
--------------------------------
 O      0   0   0     0.000000000000     0.00000000     0.00000000
 O      1   0   0     2.258183029672     0.00000000     0.00000000
 C      2   1   0     2.340052268583    66.69698106     0.00000000
 C      2   1   3     1.256388681460    32.40544217     0.00000000
 H      3   2   1     1.089082375397   141.77893408    18.32813993
 H      3   2   1     1.115759961640    95.48313247   238.95192286
 H      3   2   1     1.123778390876    87.02056879   133.79491426

---------------------------
INTERNAL COORDINATES (A.U.)
---------------------------
 O      0   0   0     0.000000000000     0.00000000     0.00000000
 O      1   0   0     4.267347486349     0.00000000     0.00000000
 C      2   1   0     4.422057926683    66.69698106     0.00000000
 C      2   1   3     2.374230525717    32.40544217     0.00000000
 H      3   2   1     2.058067426780   141.77893408    18.32813993
 H      3   2   1     2.108480758695    95.48313247   238.95192286
 H      3   2   1     2.123633393974    87.02056879   133.79491426

---------------------
BASIS SET INFORMATION
---------------------
There are 3 groups of distinct atoms

 Group   1 Type O   : 7s4p1d contracted to 3s2p1d pattern {511/31/1}
 Group   2 Type C   : 7s4p1d contracted to 3s2p1d pattern {511/31/1}
 Group   3 Type H   : 4s1p contracted to 2s1p pattern {31/1}

Atom   0O    basis set group =>   1
Atom   1O    basis set group =>   1
Atom   2C    basis set group =>   2
Atom   3C    basis set group =>   2
Atom   4H    basis set group =>   3
Atom   5H    basis set group =>   3
Atom   6H    basis set group =>   3
------------------------------------------------------------------------------
                           ORCA GTO INTEGRAL CALCULATION
------------------------------------------------------------------------------
------------------------------------------------------------------------------
                   ___                                                        
                  /   \      - P O W E R E D   B Y -                         
                 /     \                                                     
                 |  |  |   _    _      __       _____    __    __             
                 |  |  |  | |  | |    /  \     |  _  \  |  |  /  |          
                  \  \/   | |  | |   /    \    | | | |  |  | /  /          
                 / \  \   | |__| |  /  /\  \   | |_| |  |  |/  /          
                |  |  |   |  __  | /  /__\  \  |    /   |      \           
                |  |  |   | |  | | |   __   |  |    \   |  |\   \          
                \     /   | |  | | |  |  |  |  | |\  \  |  | \   \       
                 \___/    |_|  |_| |__|  |__|  |_| \__\ |__|  \__/        
                                                                              
                      - O R C A' S   B I G   F R I E N D -                    
                                      &                                       
                       - I N T E G R A L  F E E D E R -                       
                                                                              
 v1 FN, 2020, v2 2021                                                         
------------------------------------------------------------------------------


Reading SHARK input file input.SHARKINP.tmp ... ok
----------------------
SHARK INTEGRAL PACKAGE
----------------------

Number of atoms                             ...      7
Number of basis functions                   ...     71
Number of shells                            ...     33
Maximum angular momentum                    ...      2
Integral batch strategy                     ... SHARK/LIBINT Hybrid
RI-J (if used) integral strategy            ... SPLIT-RIJ (Revised 2003 algorithm where possible)
Printlevel                                  ...      1
Contraction scheme used                     ... SEGMENTED contraction
Coulomb Range Separation                    ... NOT USED
Exchange Range Separation                   ... NOT USED
Finite Nucleus Model                        ... NOT USED
Auxiliary Coulomb fitting basis             ... NOT available
Auxiliary J/K fitting basis                 ... NOT available
Auxiliary Correlation fitting basis         ... NOT available
Auxiliary 'external' fitting basis          ... NOT available
Integral threshold                          ...     2.500000e-11
Primitive cut-off                           ...     2.500000e-12
Primitive pair pre-selection threshold      ...     2.500000e-12

Calculating pre-screening integrals         ... done (  0.0 sec) Dimension = 33
Organizing shell pair data                  ... done (  0.0 sec)
Shell pair information
Total number of shell pairs                 ...       561
Shell pairs after pre-screening             ...       558
Total number of primitive shell pairs       ...      2077
Primitive shell pairs kept                  ...      1712
          la=0 lb=0:    168 shell pairs
          la=1 lb=0:    198 shell pairs
          la=1 lb=1:     66 shell pairs
          la=2 lb=0:     72 shell pairs
          la=2 lb=1:     44 shell pairs
          la=2 lb=2:     10 shell pairs

Calculating one electron integrals          ... done (  0.0 sec)
Calculating Nuclear repulsion               ... done (  0.0 sec) ENN=    110.097103840871 Eh

SHARK setup successfully completed in   0.2 seconds

Maximum memory used throughout the entire GTOINT-calculation: 7.3 MB
-------------------------------------------------------------------------------
                                 ORCA SCF
-------------------------------------------------------------------------------

------------
SCF SETTINGS
------------
Hamiltonian:
 Ab initio Hamiltonian  Method          .... Hartree-Fock(GTOs)


General Settings:
 Integral files         IntName         .... input
 Hartree-Fock type      HFTyp           .... RHF
 Total Charge           Charge          ....   -1
 Multiplicity           Mult            ....    1
 Number of Electrons    NEL             ....   32
 Basis Dimension        Dim             ....   71
 Nuclear Repulsion      ENuc            ....    110.0971038409 Eh

Convergence Acceleration:
 DIIS                   CNVDIIS         .... on
   Start iteration      DIISMaxIt       ....    12
   Startup error        DIISStart       ....  0.200000
   # of expansion vecs  DIISMaxEq       ....     5
   Bias factor          DIISBfac        ....   1.050
   Max. coefficient     DIISMaxC        ....  10.000
 Trust-Rad. Augm. Hess. CNVTRAH         .... auto
   Auto Start mean grad. ratio tolernc. ....  1.125000
   Auto Start start iteration           ....    20
   Auto Start num. interpolation iter.  ....    10
   Max. Number of Micro iterations      ....    16
   Max. Number of Macro iterations      .... Maxiter - #DIIS iter
   Number of Davidson start vectors     ....     2
   Converg. threshold I  (grad. norm)   ....   1.000e-05
   Converg. threshold II (energy diff.) ....   1.000e-08
   Grad. Scal. Fac. for Micro threshold ....   0.100
   Minimum threshold for Micro iter.    ....   0.010
   NR start threshold (gradient norm)   ....   0.001
   Initial trust radius                 ....   0.400
   Minimum AH scaling param. (alpha)    ....   1.000
   Maximum AH scaling param. (alpha)    .... 1000.000
   Orbital update algorithm             .... Taylor
   White noise on init. David. guess    .... on
   Maximum white noise                  ....   0.010
   Quad. conv. algorithm                .... NR
 SOSCF                  CNVSOSCF        .... on
   Start iteration      SOSCFMaxIt      ....   150
   Startup grad/error   SOSCFStart      ....  0.003300
 Level Shifting         CNVShift        .... on
   Level shift para.    LevelShift      ....    0.2500
   Turn off err/grad.   ShiftErr        ....    0.0010
 Zerner damping         CNVZerner       .... off
 Static damping         CNVDamp         .... on
   Fraction old density DampFac         ....    0.7000
   Max. Damping (<1)    DampMax         ....    0.9800
   Min. Damping (>=0)   DampMin         ....    0.0000
   Turn off err/grad.   DampErr         ....    0.1000
 Fernandez-Rico         CNVRico         .... off

SCF Procedure:
 Maximum # iterations   MaxIter         ....   125
 SCF integral mode      SCFMode         .... Direct
   Integral package                     .... SHARK and LIBINT hybrid scheme
 Reset frequency        DirectResetFreq ....    20
 Integral Threshold     Thresh          ....  2.500e-11 Eh
 Primitive CutOff       TCut            ....  2.500e-12 Eh

Convergence Tolerance:
 Convergence Check Mode ConvCheckMode   .... Total+1el-Energy
 Convergence forced     ConvForced      .... 0
 Energy Change          TolE            ....  1.000e-08 Eh
 1-El. energy change                    ....  1.000e-05 Eh
 Orbital Gradient       TolG            ....  1.000e-05
 Orbital Rotation angle TolX            ....  1.000e-05
 DIIS Error             TolErr          ....  5.000e-07


Diagonalization of the overlap matrix:
Smallest eigenvalue                        ... 3.516e-03
Time for diagonalization                   ...    0.002 sec
Threshold for overlap eigenvalues          ... 1.000e-08
Number of eigenvalues below threshold      ... 0
Time for construction of square roots      ...    0.012 sec
Total time needed                          ...    0.014 sec

Time for model grid setup =    0.052 sec

------------------------------
INITIAL GUESS: MODEL POTENTIAL
------------------------------
Loading Hartree-Fock densities                     ... done
Calculating cut-offs                               ... done
Initializing the effective Hamiltonian             ... done
Setting up the integral package (SHARK)            ... done
Starting the Coulomb interaction                   ... done (   0.1 sec)
Reading the grid                                   ... done
Mapping shells                                     ... done
Starting the XC term evaluation                    ... done (   0.0 sec)
Transforming the Hamiltonian                       ... done (   0.0 sec)
Diagonalizing the Hamiltonian                      ... done (   0.0 sec)
Back transforming the eigenvectors                 ... done (   0.0 sec)
Now organizing SCF variables                       ... done
                      ------------------
                      INITIAL GUESS DONE (   0.1 sec)
                      ------------------

--------------------
CPCM SOLVATION MODEL
--------------------
CPCM parameters:
  Epsilon                                         ...      80.4000
  Refrac                                          ...       1.3300
  Rsolv                                           ...       1.3000
  Surface type                                    ... GAUSSIAN VDW
  Epsilon function type                           ...         CPCM
Radii:
 Radius for O  used is    3.4469 Bohr (=   1.8240 Ang.)
 Radius for C  used is    3.8550 Bohr (=   2.0400 Ang.)
 Radius for H  used is    2.4944 Bohr (=   1.3200 Ang.)
Calculating surface                               ...        done! (  0.0s)
GEPOL surface points                              ...          476
GEPOL Volume                                      ...     523.3232
GEPOL Surface-area                                ...     347.1586
Calculating surface distance matrix               ...        done! (  0.0s)
Performing Cholesky decomposition & store         ...        done! (  0.0s)
Overall time for CPCM initialization              ...                 0.0s
--------------
SCF ITERATIONS
--------------
ITER       Energy         Delta-E        Max-DP      RMS-DP      [F,P]     Damp
               ***  Starting incremental Fock matrix formation  ***
  0   -226.8956397810   0.000000000000 0.07054019  0.00398969  0.3134832 0.7000
  1   -226.9848666100  -0.089226828985 0.04944147  0.00284682  0.1907839 0.7000
                               ***Turning on DIIS***
  2   -227.0355992124  -0.050732602382 0.02844127  0.00167259  0.1064333 0.7000
  3   -227.5211268645  -0.485527652061 0.04876263  0.00285257  0.0608536 0.0000
  4   -227.0997717873   0.421355077194 0.01828012  0.00068645  0.0087729 0.0000
  5   -227.1407959200  -0.041024132755 0.00558473  0.00027664  0.0034298 0.0000
                      *** Initiating the SOSCF procedure ***
                           *** Shutting down DIIS ***
                      *** Re-Reading the Fockian *** 
                      *** Removing any level shift *** 
ITER      Energy       Delta-E        Grad      Rot      Max-DP    RMS-DP
  6   -227.13789935   0.0028965692  0.001374  0.001374  0.001884  0.000124
               *** Restarting incremental Fock matrix formation ***
  7   -227.13691075   0.0009885958  0.000513  0.000825  0.001003  0.000053
  8   -227.13691450  -0.0000037407  0.000200  0.000706  0.000726  0.000054
  9   -227.13691599  -0.0000014984  0.000085  0.000089  0.000166  0.000010
 10   -227.13691609  -0.0000000924  0.000026  0.000051  0.000095  0.000007
 11   -227.13691611  -0.0000000186  0.000009  0.000027  0.000033  0.000001
 12   -227.13691611  -0.0000000017  0.000004  0.000003  0.000012  0.000001
                  ***Gradient check signals convergence***
              ***Rediagonalizing the Fockian in SOSCF/NRSCF***

               *****************************************************
               *                     SUCCESS                       *
               *           SCF CONVERGED AFTER  13 CYCLES          *
               *****************************************************


----------------
TOTAL SCF ENERGY
----------------

Total Energy       :         -227.13691611 Eh           -6180.70971 eV

Components:
Nuclear Repulsion  :          110.09710384 Eh            2995.89450 eV
Electronic Energy  :         -337.23401995 Eh           -9176.60421 eV
One Electron Energy:         -537.85820459 Eh          -14635.86582 eV
Two Electron Energy:          200.62418464 Eh            5459.26161 eV
CPCM Dielectric    :           -0.12453115 Eh              -3.38866 eV

Virial components:
Potential Energy   :         -453.19260862 Eh          -12331.99783 eV
Kinetic Energy     :          226.05569252 Eh            6151.28812 eV
Virial Ratio       :            2.00478300

CPCM Solvation Model Properties:
Surface-charge          :            0.98831908
Charge-correction       :           -0.00207791 Eh              -0.05654 eV
Free-energy (cav+disp)  :  This term is not implemented in the current solvation scheme

---------------
SCF CONVERGENCE
---------------

  Last Energy change         ...   -7.1267e-10  Tolerance :   1.0000e-08
  Last MAX-Density change    ...    3.4391e-06  Tolerance :   1.0000e-07
  Last RMS-Density change    ...    2.0762e-07  Tolerance :   5.0000e-09
  Last Orbital Gradient      ...    1.1662e-06  Tolerance :   1.0000e-05
  Last Orbital Rotation      ...    2.4592e-06  Tolerance :   1.0000e-05

             **** THE GBW FILE WAS UPDATED (input.gbw) ****
             **** DENSITY input.scfp WAS UPDATED ****
             **** ENERGY FILE WAS UPDATED (input.en.tmp) ****
             **** THE GBW FILE WAS UPDATED (input.gbw) ****
             **** DENSITY input.scfp WAS UPDATED ****
----------------
ORBITAL ENERGIES
----------------

  NO   OCC          E(Eh)            E(eV) 
   0   2.0000     -20.460894      -556.7692 
   1   2.0000     -20.441518      -556.2420 
   2   2.0000     -11.317439      -307.9632 
   3   2.0000     -11.217772      -305.2511 
   4   2.0000      -1.306714       -35.5575 
   5   2.0000      -1.169735       -31.8301 
   6   2.0000      -0.962425       -26.1889 
   7   2.0000      -0.681427       -18.5426 
   8   2.0000      -0.588232       -16.0066 
   9   2.0000      -0.584220       -15.8974 
  10   2.0000      -0.573209       -15.5978 
  11   2.0000      -0.510158       -13.8821 
  12   2.0000      -0.472264       -12.8510 
  13   2.0000      -0.388091       -10.5605 
  14   2.0000      -0.364471        -9.9178 
  15   2.0000      -0.356130        -9.6908 
  16   0.0000       0.205989         5.6052 
  17   0.0000       0.213943         5.8217 
  18   0.0000       0.271994         7.4013 
  19   0.0000       0.305810         8.3215 
  20   0.0000       0.416638        11.3373 
  21   0.0000       0.451362        12.2822 
  22   0.0000       0.506442        13.7810 
  23   0.0000       0.661137        17.9904 
  24   0.0000       0.726745        19.7757 
  25   0.0000       0.765996        20.8438 
  26   0.0000       0.777119        21.1465 
  27   0.0000       0.807964        21.9858 
  28   0.0000       0.872771        23.7493 
  29   0.0000       0.903252        24.5787 
  30   0.0000       0.916004        24.9257 
  31   0.0000       0.928546        25.2670 
  32   0.0000       0.947329        25.7781 
  33   0.0000       1.082803        29.4646 
  34   0.0000       1.215193        33.0671 
  35   0.0000       1.254938        34.1486 
  36   0.0000       1.337987        36.4085 
  37   0.0000       1.374439        37.4004 
  38   0.0000       1.451065        39.4855 
  39   0.0000       1.461357        39.7655 
  40   0.0000       1.526096        41.5272 
  41   0.0000       1.588638        43.2290 
  42   0.0000       1.717022        46.7226 
  43   0.0000       1.794764        48.8380 
  44   0.0000       1.885239        51.3000 
  45   0.0000       1.930281        52.5256 
  46   0.0000       1.950394        53.0729 
  47   0.0000       2.017332        54.8944 
  48   0.0000       2.075395        56.4744 
  49   0.0000       2.095244        57.0145 
  50   0.0000       2.198247        59.8173 
  51   0.0000       2.298569        62.5472 
  52   0.0000       2.373745        64.5929 
  53   0.0000       2.421618        65.8956 
  54   0.0000       2.574905        70.0667 
  55   0.0000       2.714155        73.8559 
  56   0.0000       2.793727        76.0212 
  57   0.0000       2.837052        77.2001 
  58   0.0000       3.061005        83.2942 
  59   0.0000       3.075666        83.6931 
  60   0.0000       3.104439        84.4761 
  61   0.0000       3.111931        84.6800 
  62   0.0000       3.164558        86.1120 
  63   0.0000       3.216256        87.5188 
  64   0.0000       3.246861        88.3516 
  65   0.0000       3.421923        93.1153 
  66   0.0000       3.464338        94.2694 
  67   0.0000       3.579886        97.4136 
  68   0.0000       3.764357       102.4334 
  69   0.0000       3.997988       108.7908 
  70   0.0000       4.053767       110.3086 

                    ********************************
                    * MULLIKEN POPULATION ANALYSIS *
                    ********************************

-----------------------
MULLIKEN ATOMIC CHARGES
-----------------------
   0 O :   -0.804541
   1 O :   -0.647767
   2 C :   -0.082925
   3 C :    0.376388
   4 H :    0.037953
   5 H :    0.067851
   6 H :    0.053042
Sum of atomic charges:   -1.0000000

--------------------------------
MULLIKEN REDUCED ORBITAL CHARGES
--------------------------------
  0 O s       :     3.842836  s :     3.842836
      pz      :     1.707363  p :     4.950603
      px      :     1.586271
      py      :     1.656970
      dz2     :     0.001527  d :     0.011102
      dxz     :     0.001510
      dyz     :     0.001303
      dx2y2   :     0.001497
      dxy     :     0.005265
  1 O s       :     3.787620  s :     3.787620
      pz      :     1.609316  p :     4.844407
      px      :     1.832353
      py      :     1.402738
      dz2     :     0.001899  d :     0.015740
      dxz     :     0.000409
      dyz     :     0.004172
      dx2y2   :     0.005476
      dxy     :     0.003784
  2 C s       :     3.058116  s :     3.058116
      pz      :     1.037805  p :     2.990979
      px      :     0.950053
      py      :     1.003120
      dz2     :     0.007394  d :     0.033830
      dxz     :     0.004039
      dyz     :     0.005807
      dx2y2   :     0.011389
      dxy     :     0.005201
  3 C s       :     3.080715  s :     3.080715
      pz      :     0.667501  p :     2.400429
      px      :     0.911708
      py      :     0.821221
      dz2     :     0.008152  d :     0.142468
      dxz     :     0.010502
      dyz     :     0.030229
      dx2y2   :     0.047422
      dxy     :     0.046163
  4 H s       :     0.936842  s :     0.936842
      pz      :     0.004334  p :     0.025205
      px      :     0.003879
      py      :     0.016992
  5 H s       :     0.906348  s :     0.906348
      pz      :     0.015647  p :     0.025800
      px      :     0.005067
      py      :     0.005086
  6 H s       :     0.921742  s :     0.921742
      pz      :     0.009662  p :     0.025216
      px      :     0.006803
      py      :     0.008751


                     *******************************
                     * LOEWDIN POPULATION ANALYSIS *
                     *******************************

----------------------
LOEWDIN ATOMIC CHARGES
----------------------
   0 O :   -0.667371
   1 O :   -0.502044
   2 C :   -0.083896
   3 C :    0.151659
   4 H :    0.019065
   5 H :    0.043659
   6 H :    0.038929

-------------------------------
LOEWDIN REDUCED ORBITAL CHARGES
-------------------------------
  0 O s       :     3.650163  s :     3.650163
      pz      :     1.693131  p :     4.999994
      px      :     1.624466
      py      :     1.682398
      dz2     :     0.002720  d :     0.017214
      dxz     :     0.001652
      dyz     :     0.001546
      dx2y2   :     0.002269
      dxy     :     0.009026
  1 O s       :     3.574518  s :     3.574518
      pz      :     1.587975  p :     4.902686
      px      :     1.814541
      py      :     1.500170
      dz2     :     0.003696  d :     0.024841
      dxz     :     0.000384
      dyz     :     0.004473
      dx2y2   :     0.009738
      dxy     :     0.006549
  2 C s       :     2.853530  s :     2.853530
      pz      :     1.060210  p :     3.152143
      px      :     1.037836
      py      :     1.054097
      dz2     :     0.017050  d :     0.078223
      dxz     :     0.010165
      dyz     :     0.012198
      dx2y2   :     0.025747
      dxy     :     0.013062
  3 C s       :     2.878279  s :     2.878279
      pz      :     0.680102  p :     2.678123
      px      :     1.011712
      py      :     0.986309
      dz2     :     0.016275  d :     0.291939
      dxz     :     0.018775
      dyz     :     0.055149
      dx2y2   :     0.102480
      dxy     :     0.099261
  4 H s       :     0.913644  s :     0.913644
      pz      :     0.013686  p :     0.067292
      px      :     0.013618
      py      :     0.039987
  5 H s       :     0.892015  s :     0.892015
      pz      :     0.036009  p :     0.064326
      px      :     0.014643
      py      :     0.013674
  6 H s       :     0.898489  s :     0.898489
      pz      :     0.022914  p :     0.062582
      px      :     0.018342
      py      :     0.021326


                      *****************************
                      * MAYER POPULATION ANALYSIS *
                      *****************************

  NA   - Mulliken gross atomic population
  ZA   - Total nuclear charge
  QA   - Mulliken gross atomic charge
  VA   - Mayer's total valence
  BVA  - Mayer's bonded valence
  FA   - Mayer's free valence

  ATOM       NA         ZA         QA         VA         BVA        FA
  0 O      8.8045     8.0000    -0.8045     1.5964     1.5964     0.0000
  1 O      8.6478     8.0000    -0.6478     1.7440     1.7440     0.0000
  2 C      6.0829     6.0000    -0.0829     3.8185     3.8185    -0.0000
  3 C      5.6236     6.0000     0.3764     4.2489     4.2489     0.0000
  4 H      0.9620     1.0000     0.0380     0.9939     0.9939    -0.0000
  5 H      0.9321     1.0000     0.0679     0.9920     0.9920    -0.0000
  6 H      0.9470     1.0000     0.0530     0.9968     0.9968    -0.0000

  Mayer bond orders larger than 0.100000
B(  0-O ,  3-C ) :   1.5576 B(  1-O ,  3-C ) :   1.7078 B(  2-C ,  3-C ) :   0.9680 
B(  2-C ,  4-H ) :   0.9776 B(  2-C ,  5-H ) :   0.9700 B(  2-C ,  6-H ) :   0.9752 


-------
TIMINGS
-------

Total SCF time: 0 days 0 hours 0 min 4 sec 

Total time                  ....       4.343 sec
Sum of individual times     ....       3.563 sec  ( 82.1%)

Fock matrix formation       ....       3.383 sec  ( 77.9%)
Diagonalization             ....       0.010 sec  (  0.2%)
Density matrix formation    ....       0.001 sec  (  0.0%)
Population analysis         ....       0.007 sec  (  0.2%)
Initial guess               ....       0.080 sec  (  1.8%)
Orbital Transformation      ....       0.000 sec  (  0.0%)
Orbital Orthonormalization  ....       0.000 sec  (  0.0%)
DIIS solution               ....       0.021 sec  (  0.5%)
SOSCF solution              ....       0.008 sec  (  0.2%)

Maximum memory used throughout the entire SCF-calculation: 228.6 MB

-------------------------   --------------------
FINAL SINGLE POINT ENERGY      -227.136916107458
-------------------------   --------------------

------------------------------------------------------------------------------
                         ORCA SCF GRADIENT CALCULATION
------------------------------------------------------------------------------

Gradient of the Hartree-Fock SCF energy:
Hartree-Fock type                ... RHF
Number of operators              ...    1
Number of atoms                  ...    7
Basis set dimensions             ...   71
Integral neglect threshold       ... 2.5e-11
Integral primitive cutoff        ... 2.5e-12
SHARK Integral package           ... ON

Nuc. rep. gradient       (SHARK) ... done (  0.0 sec)
HCore & Overlap gradient (SHARK) ... done (  0.0 sec)
Two-Electron gradient    (SHARK) ... done (  0.7 sec)

------------------
CARTESIAN GRADIENT
------------------

   1   O   :    0.108735182   -0.067130679    0.015882114
   2   O   :    0.025349994    0.038898315    0.002450873
   3   C   :    0.027930048   -0.010984534   -0.007341149
   4   C   :   -0.146839191    0.015475676   -0.017461045
   5   H   :   -0.001110843    0.000769672    0.006433459
   6   H   :   -0.005064622    0.010266510   -0.013442959
   7   H   :   -0.009000569    0.012705041    0.013478707

Difference to translation invariance:
           :   -0.0000000000    0.0000000000   -0.0000000000

Difference to rotation invariance:
           :    0.0004470302    0.0003326640    0.0020571604

Norm of the cartesian gradient     ...    0.2063581215
RMS gradient                       ...    0.0450310339
MAX gradient                       ...    0.1468391906

-------
TIMINGS
-------

Total SCF gradient time            ...        0.882 sec

One electron gradient       ....       0.017 sec  (  1.9%)
Two electron gradient       ....       0.703 sec  ( 79.7%)
CPCM gradient               ....       0.070 sec  (  7.9%)
   A-Matrix (El+Nuc)        ....       0.010 sec  (  1.1%)
   Potential                ....       0.060 sec  (  6.8%)

Maximum memory used throughout the entire SCFGRAD-calculation: 16.4 MB
------------------------------------------------------------------------------
                         ORCA GEOMETRY RELAXATION STEP
------------------------------------------------------------------------------

Reading the OPT-File                    .... done
Getting information on internals        .... done
Copying old internal coords+grads       .... done
Making the new internal coordinates     .... (new redundants).... done
Validating the new internal coordinates .... (new redundants).... done
Calculating the B-matrix                .... done
Calculating the G,G- and P matrices     .... done
Transforming gradient to internals      .... done
Projecting the internal gradient        .... done
Number of atoms                         ....   7
Number of internal coordinates          ....  21
Current Energy                          ....  -227.136916107 Eh
Current gradient norm                   ....     0.206358122 Eh/bohr
Maximum allowed component of the step   ....  0.300
Current trust radius                    ....  0.300
Evaluating the initial hessian          ....  (Almloef) done
Projecting the Hessian                  .... done
Forming the augmented Hessian           .... done
Diagonalizing the augmented Hessian     .... done
Last element of RFO vector              ....  0.969411884
Lowest eigenvalues of augmented Hessian:
 -0.035609850  0.014644878  0.014673906  0.126091438  0.143564206
Length of the computed step             ....  0.253184025
The final length of the internal step   ....  0.253184025
Converting the step to cartesian space:
 Initial RMS(Int)=    0.0552492839
Transforming coordinates:
 Iter   0:  RMS(Cart)=    0.0575794172 RMS(Int)=    0.0547966065
 Iter   1:  RMS(Cart)=    0.0027714232 RMS(Int)=    0.0025796878
 Iter   2:  RMS(Cart)=    0.0001867843 RMS(Int)=    0.0001984582
 Iter   3:  RMS(Cart)=    0.0000098486 RMS(Int)=    0.0000070435
 Iter   4:  RMS(Cart)=    0.0000009049 RMS(Int)=    0.0000009085
 Iter   5:  RMS(Cart)=    0.0000000502 RMS(Int)=    0.0000000516
done
Storing new coordinates                 .... done

                                .--------------------.
          ----------------------|Geometry convergence|-------------------------
          Item                value                   Tolerance       Converged
          ---------------------------------------------------------------------
          RMS gradient        0.0318607438            0.0001000000      NO
          MAX gradient        0.1258931309            0.0003000000      NO
          RMS step            0.0552492839            0.0020000000      NO
          MAX step            0.1999536598            0.0040000000      NO
          ........................................................
          Max(Bonds)      0.1058      Max(Angles)    4.48
          Max(Dihed)        2.09      Max(Improp)    0.00
          ---------------------------------------------------------------------

The optimization has not yet converged - more geometry cycles are needed


    ---------------------------------------------------------------------------
                         Redundant Internal Coordinates
                            (Angstroem and degrees)

        Definition                    Value    dE/dq     Step     New-Value
    ----------------------------------------------------------------------------
     1. B(C   3,O   1)                1.2564  0.044206 -0.0246    1.2318   
     2. B(C   3,O   0)                1.3738  0.125893 -0.1058    1.2679   
     3. B(C   3,C   2)                1.4820 -0.014916  0.0164    1.4984   
     4. B(H   4,C   2)                1.0891  0.000833 -0.0011    1.0880   
     5. B(H   5,C   2)                1.1158  0.016755 -0.0244    1.0913   
     6. B(H   6,C   2)                1.1238  0.020595 -0.0308    1.0930   
     7. A(H   5,C   2,H   6)          105.36 -0.001201    0.66    106.02   
     8. A(H   4,C   2,H   6)          107.85 -0.001542    0.72    108.57   
     9. A(C   3,C   2,H   4)          114.19  0.001857   -0.46    113.72   
    10. A(C   3,C   2,H   5)          109.22 -0.000495   -0.15    109.07   
    11. A(H   4,C   2,H   5)          113.10  0.004531   -1.50    111.60   
    12. A(C   3,C   2,H   6)          106.53 -0.003978    1.01    107.54   
    13. A(O   1,C   3,C   2)          117.18 -0.000868    0.27    117.45   
    14. A(O   0,C   3,C   2)          124.58  0.035704   -4.48    120.09   
    15. A(O   0,C   3,O   1)          118.25 -0.034836    4.22    122.46   
    16. D(O   0,C   3,C   2,H   5)   -115.43 -0.003662    1.31   -114.12   
    17. D(O   0,C   3,C   2,H   6)    131.24 -0.000016    0.10    131.34   
    18. D(O   1,C   3,C   2,H   4)   -167.69  0.004282   -2.09   -169.78   
    19. D(O   1,C   3,C   2,H   5)     64.57 -0.002885    0.42     65.00   
    20. D(O   1,C   3,C   2,H   6)    -48.76  0.000761   -0.79    -49.55   
    21. D(O   0,C   3,C   2,H   4)     12.31  0.003506   -1.21     11.11   
    ----------------------------------------------------------------------------

         *************************************************************
         *                GEOMETRY OPTIMIZATION CYCLE   2            *
         *************************************************************
---------------------------------
CARTESIAN COORDINATES (ANGSTROEM)
---------------------------------
  O      1.322283   -0.712395    0.216112
  O      0.815097    1.413291    0.056068
  C     -0.975200   -0.083880   -0.074737
  C      0.482118    0.227666    0.081578
  H     -1.225114   -1.122594    0.130930
  H     -1.298919    0.216946   -1.072610
  H     -1.524575    0.551256    0.624808

----------------------------
CARTESIAN COORDINATES (A.U.)
----------------------------
  NO LB      ZA    FRAG     MASS         X           Y           Z
   0 O     8.0000    0    15.999    2.498752   -1.346231    0.408393
   1 O     8.0000    0    15.999    1.540310    2.670734    0.105953
   2 C     6.0000    0    12.011   -1.842861   -0.158511   -0.141233
   3 C     6.0000    0    12.011    0.911071    0.430227    0.154161
   4 H     1.0000    0     1.008   -2.315130   -2.121395    0.247423
   5 H     1.0000    0     1.008   -2.454601    0.409968   -2.026939
   6 H     1.0000    0     1.008   -2.881029    1.041722    1.180715

--------------------------------
INTERNAL COORDINATES (ANGSTROEM)
--------------------------------
 O      0   0   0     0.000000000000     0.00000000     0.00000000
 O      1   0   0     2.191208233150     0.00000000     0.00000000
 C      2   1   0     2.337476650858    63.89694026     0.00000000
 C      2   1   3     1.231759652720    29.22549527     0.57520020
 H      3   2   1     1.087971665178   140.97437214    15.45241289
 H      3   2   1     1.091347660929    95.84283100   239.92843885
 H      3   2   1     1.092965174571    88.67965468   133.96041287

---------------------------
INTERNAL COORDINATES (A.U.)
---------------------------
 O      0   0   0     0.000000000000     0.00000000     0.00000000
 O      1   0   0     4.140783463047     0.00000000     0.00000000
 C      2   1   0     4.417190714558    63.89694026     0.00000000
 C      2   1   3     2.327688406456    29.22549527     0.57520020
 H      3   2   1     2.055968488653   140.97437214    15.45241289
 H      3   2   1     2.062348196052    95.84283100   239.92843885
 H      3   2   1     2.065404853853    88.67965468   133.96041287

------------------------------------------------------------------------------
                   ___                                                        
                  /   \      - P O W E R E D   B Y -                         
                 /     \                                                     
                 |  |  |   _    _      __       _____    __    __             
                 |  |  |  | |  | |    /  \     |  _  \  |  |  /  |          
                  \  \/   | |  | |   /    \    | | | |  |  | /  /          
                 / \  \   | |__| |  /  /\  \   | |_| |  |  |/  /          
                |  |  |   |  __  | /  /__\  \  |    /   |      \           
                |  |  |   | |  | | |   __   |  |    \   |  |\   \          
                \     /   | |  | | |  |  |  |  | |\  \  |  | \   \       
                 \___/    |_|  |_| |__|  |__|  |_| \__\ |__|  \__/        
                                                                              
                      - O R C A' S   B I G   F R I E N D -                    
                                      &                                       
                       - I N T E G R A L  F E E D E R -                       
                                                                              
 v1 FN, 2020, v2 2021                                                         
------------------------------------------------------------------------------


Reading SHARK input file input.SHARKINP.tmp ... ok
----------------------
SHARK INTEGRAL PACKAGE
----------------------

Number of atoms                             ...      7
Number of basis functions                   ...     71
Number of shells                            ...     33
Maximum angular momentum                    ...      2
Integral batch strategy                     ... SHARK/LIBINT Hybrid
RI-J (if used) integral strategy            ... SPLIT-RIJ (Revised 2003 algorithm where possible)
Printlevel                                  ...      1
Contraction scheme used                     ... SEGMENTED contraction
Coulomb Range Separation                    ... NOT USED
Exchange Range Separation                   ... NOT USED
Finite Nucleus Model                        ... NOT USED
Auxiliary Coulomb fitting basis             ... NOT available
Auxiliary J/K fitting basis                 ... NOT available
Auxiliary Correlation fitting basis         ... NOT available
Auxiliary 'external' fitting basis          ... NOT available
Integral threshold                          ...     2.500000e-11
Primitive cut-off                           ...     2.500000e-12
Primitive pair pre-selection threshold      ...     2.500000e-12

Calculating pre-screening integrals         ... done (  0.0 sec) Dimension = 33
Organizing shell pair data                  ... done (  0.0 sec)
Shell pair information
Total number of shell pairs                 ...       561
Shell pairs after pre-screening             ...       558
Total number of primitive shell pairs       ...      2077
Primitive shell pairs kept                  ...      1716
          la=0 lb=0:    168 shell pairs
          la=1 lb=0:    198 shell pairs
          la=1 lb=1:     66 shell pairs
          la=2 lb=0:     72 shell pairs
          la=2 lb=1:     44 shell pairs
          la=2 lb=2:     10 shell pairs

Calculating one electron integrals          ... done (  0.0 sec)
Calculating Nuclear repulsion               ... done (  0.0 sec) ENN=    113.272315613237 Eh

SHARK setup successfully completed in   0.1 seconds

Maximum memory used throughout the entire GTOINT-calculation: 7.3 MB

Diagonalization of the overlap matrix:
Smallest eigenvalue                        ... 3.717e-03
Time for diagonalization                   ...    0.001 sec
Threshold for overlap eigenvalues          ... 1.000e-08
Number of eigenvalues below threshold      ... 0
Time for construction of square roots      ...    0.002 sec
Total time needed                          ...    0.003 sec


--------------------
CPCM SOLVATION MODEL
--------------------
CPCM parameters:
  Epsilon                                         ...      80.4000
  Refrac                                          ...       1.3300
  Rsolv                                           ...       1.3000
  Surface type                                    ... GAUSSIAN VDW
  Epsilon function type                           ...         CPCM
Radii:
 Radius for O  used is    3.4469 Bohr (=   1.8240 Ang.)
 Radius for C  used is    3.8550 Bohr (=   2.0400 Ang.)
 Radius for H  used is    2.4944 Bohr (=   1.3200 Ang.)
Calculating surface                               ...        done! (  0.0s)
GEPOL surface points                              ...          475
GEPOL Volume                                      ...     514.5803
GEPOL Surface-area                                ...     341.7443
Calculating surface distance matrix               ...        done! (  0.0s)
Performing Cholesky decomposition & store         ...        done! (  0.0s)
Overall time for CPCM initialization              ...                 0.0s
--------------
SCF ITERATIONS
--------------
ITER       Energy         Delta-E        Max-DP      RMS-DP      [F,P]     Damp
               ***  Starting incremental Fock matrix formation  ***
  0   -227.1508242757   0.000000000000 0.00875453  0.00059508  0.0418122 0.7000
  1   -227.1532625960  -0.002438320292 0.00848834  0.00053219  0.0305844 0.7000
                               ***Turning on DIIS***
  2   -227.1552154565  -0.001952860503 0.02382336  0.00142208  0.0222077 0.0000
  3   -227.1505792448   0.004636211659 0.00835217  0.00049430  0.0076880 0.0000
  4   -227.1625779445  -0.011998699698 0.00443009  0.00024227  0.0047449 0.0000
                      *** Initiating the SOSCF procedure ***
                           *** Shutting down DIIS ***
                      *** Re-Reading the Fockian *** 
                      *** Removing any level shift *** 
ITER      Energy       Delta-E        Grad      Rot      Max-DP    RMS-DP
  5   -227.16592967  -0.0033517220  0.001512  0.001512  0.002042  0.000113
               *** Restarting incremental Fock matrix formation ***
  6   -227.16132457   0.0046050929  0.000602  0.000994  0.000833  0.000062
  7   -227.16132977  -0.0000051917  0.000348  0.001338  0.001351  0.000072
  8   -227.16133204  -0.0000022779  0.000058  0.000072  0.000178  0.000010
  9   -227.16133211  -0.0000000677  0.000033  0.000013  0.000069  0.000004
 10   -227.16133213  -0.0000000186  0.000005  0.000007  0.000022  0.000001
                 **** Energy Check signals convergence ****
              ***Rediagonalizing the Fockian in SOSCF/NRSCF***

               *****************************************************
               *                     SUCCESS                       *
               *           SCF CONVERGED AFTER  11 CYCLES          *
               *****************************************************

Total Energy       :         -227.16133213 Eh           -6181.37410 eV
  Last Energy change         ...   -1.0718e-09  Tolerance :   1.0000e-08
  Last MAX-Density change    ...    1.0716e-05  Tolerance :   1.0000e-07
             **** THE GBW FILE WAS UPDATED (input.gbw) ****
             **** DENSITY input.scfp WAS UPDATED ****
             **** ENERGY FILE WAS UPDATED (input.en.tmp) ****
             **** THE GBW FILE WAS UPDATED (input.gbw) ****
             **** DENSITY input.scfp WAS UPDATED ****
Total SCF time: 0 days 0 hours 0 min 3 sec 

Maximum memory used throughout the entire SCF-calculation: 228.6 MB

-------------------------   --------------------
FINAL SINGLE POINT ENERGY      -227.161332130604
-------------------------   --------------------

------------------------------------------------------------------------------
                         ORCA SCF GRADIENT CALCULATION
------------------------------------------------------------------------------

Gradient of the Hartree-Fock SCF energy:
Hartree-Fock type                ... RHF
Number of operators              ...    1
Number of atoms                  ...    7
Basis set dimensions             ...   71
Integral neglect threshold       ... 2.5e-11
Integral primitive cutoff        ... 2.5e-12
SHARK Integral package           ... ON

Nuc. rep. gradient       (SHARK) ... done (  0.0 sec)
HCore & Overlap gradient (SHARK) ... done (  0.0 sec)
Two-Electron gradient    (SHARK) ... done (  0.7 sec)

------------------
CARTESIAN GRADIENT
------------------

   1   O   :    0.035287255   -0.016899248    0.004363665
   2   O   :    0.009331706   -0.008891126    0.001410313
   3   C   :    0.012968166   -0.003102034   -0.006222616
   4   C   :   -0.058235005    0.022862735   -0.005389837
   5   H   :   -0.001252287    0.001389137    0.003804129
   6   H   :    0.000488288    0.003640918    0.001352532
   7   H   :    0.001411877    0.000999620    0.000681815

Difference to translation invariance:
           :   -0.0000000000   -0.0000000000    0.0000000000

Difference to rotation invariance:
           :   -0.0005088650   -0.0005834740    0.0009557426

Norm of the cartesian gradient     ...    0.0769043368
RMS gradient                       ...    0.0167819021
MAX gradient                       ...    0.0582350053

-------
TIMINGS
-------

Total SCF gradient time            ...        0.906 sec

One electron gradient       ....       0.017 sec  (  1.9%)
Two electron gradient       ....       0.720 sec  ( 79.4%)
CPCM gradient               ....       0.074 sec  (  8.1%)
   A-Matrix (El+Nuc)        ....       0.013 sec  (  1.4%)
   Potential                ....       0.060 sec  (  6.7%)

Maximum memory used throughout the entire SCFGRAD-calculation: 16.5 MB
------------------------------------------------------------------------------
                         ORCA GEOMETRY RELAXATION STEP
------------------------------------------------------------------------------

Reading the OPT-File                    .... done
Getting information on internals        .... done
Copying old internal coords+grads       .... done
Making the new internal coordinates     .... (new redundants).... done
Validating the new internal coordinates .... (new redundants).... done
Calculating the B-matrix                .... done
Calculating the G,G- and P matrices     .... done
Transforming gradient to internals      .... done
Projecting the internal gradient        .... done
Number of atoms                         ....   7
Number of internal coordinates          ....  21
Current Energy                          ....  -227.161332131 Eh
Current gradient norm                   ....     0.076904337 Eh/bohr
Maximum allowed component of the step   ....  0.300
Current trust radius                    ....  0.300
Updating the Hessian (BFGS)             .... done
Forming the augmented Hessian           .... done
Diagonalizing the augmented Hessian     .... done
Last element of RFO vector              ....  0.987979607
Lowest eigenvalues of augmented Hessian:
 -0.006944071  0.014650331  0.014691644  0.124002098  0.143355934
Length of the computed step             ....  0.156465041
The final length of the internal step   ....  0.156465041
Converting the step to cartesian space:
 Initial RMS(Int)=    0.0341434712
Transforming coordinates:
 Iter   0:  RMS(Cart)=    0.0311676375 RMS(Int)=    0.0339437579
 Iter   1:  RMS(Cart)=    0.0011670839 RMS(Int)=    0.0012015654
 Iter   2:  RMS(Cart)=    0.0000523769 RMS(Int)=    0.0000529199
 Iter   3:  RMS(Cart)=    0.0000029809 RMS(Int)=    0.0000026118
 Iter   4:  RMS(Cart)=    0.0000001616 RMS(Int)=    0.0000001787
 Iter   5:  RMS(Cart)=    0.0000000075 RMS(Int)=    0.0000000057
done
Storing new coordinates                 .... done

                                .--------------------.
          ----------------------|Geometry convergence|-------------------------
          Item                value                   Tolerance       Converged
          ---------------------------------------------------------------------
          Energy change      -0.0244160231            0.0000050000      NO
          RMS gradient        0.0104956702            0.0001000000      NO
          MAX gradient        0.0364043000            0.0003000000      NO
          RMS step            0.0341434712            0.0020000000      NO
          MAX step            0.0948468355            0.0040000000      NO
          ........................................................
          Max(Bonds)      0.0502      Max(Angles)    3.93
          Max(Dihed)        2.36      Max(Improp)    0.00
          ---------------------------------------------------------------------

The optimization has not yet converged - more geometry cycles are needed


    ---------------------------------------------------------------------------
                         Redundant Internal Coordinates
                            (Angstroem and degrees)

        Definition                    Value    dE/dq     Step     New-Value
    ----------------------------------------------------------------------------
     1. B(C   3,O   1)                1.2318 -0.006096  0.0036    1.2353   
     2. B(C   3,O   0)                1.2679  0.036404 -0.0502    1.2178   
     3. B(C   3,C   2)                1.4984 -0.013814  0.0234    1.5218   
     4. B(H   4,C   2)                1.0880 -0.000341  0.0007    1.0886   
     5. B(H   5,C   2)                1.0913 -0.000382  0.0002    1.0915   
     6. B(H   6,C   2)                1.0930  0.000337 -0.0016    1.0914   
     7. A(H   5,C   2,H   6)          106.02 -0.000077    0.64    106.66   
     8. A(H   4,C   2,H   6)          108.56 -0.000736    0.70    109.27   
     9. A(C   3,C   2,H   4)          113.71  0.002827   -0.90    112.81   
    10. A(C   3,C   2,H   5)          109.06 -0.001025    0.00    109.06   
    11. A(H   4,C   2,H   5)          111.58  0.002882   -1.65    109.93   
    12. A(C   3,C   2,H   6)          107.53 -0.004346    1.54    109.07   
    13. A(O   1,C   3,C   2)          117.44  0.005920   -0.95    116.49   
    14. A(O   0,C   3,C   2)          120.09  0.014989   -2.98    117.11   
    15. A(O   0,C   3,O   1)          122.46 -0.020910    3.93    126.39   
    16. D(O   0,C   3,C   2,H   5)   -114.12 -0.002413    0.56   -113.56   
    17. D(O   0,C   3,C   2,H   6)    131.34  0.000472   -0.97    130.37   
    18. D(O   1,C   3,C   2,H   4)   -169.77  0.002392   -0.84   -170.62   
    19. D(O   1,C   3,C   2,H   5)     64.99 -0.002671    2.08     67.07   
    20. D(O   1,C   3,C   2,H   6)    -49.55  0.000214    0.55    -49.00   
    21. D(O   0,C   3,C   2,H   4)     11.11  0.002650   -2.36      8.75   
    ----------------------------------------------------------------------------

         *************************************************************
         *                GEOMETRY OPTIMIZATION CYCLE   3            *
         *************************************************************
---------------------------------
CARTESIAN COORDINATES (ANGSTROEM)
---------------------------------
  O      1.265396   -0.713599    0.212515
  O      0.828781    1.426279    0.056832
  C     -0.971978   -0.077554   -0.066059
  C      0.510981    0.232715    0.077319
  H     -1.203728   -1.124472    0.121992
  H     -1.298160    0.200280   -1.069982
  H     -1.535602    0.546640    0.629533

----------------------------
CARTESIAN COORDINATES (A.U.)
----------------------------
  NO LB      ZA    FRAG     MASS         X           Y           Z
   0 O     8.0000    0    15.999    2.391252   -1.348507    0.401596
   1 O     8.0000    0    15.999    1.566169    2.695278    0.107397
   2 C     6.0000    0    12.011   -1.836772   -0.146555   -0.124834
   3 C     6.0000    0    12.011    0.965614    0.439768    0.146112
   4 H     1.0000    0     1.008   -2.274717   -2.124944    0.230532
   5 H     1.0000    0     1.008   -2.453167    0.378474   -2.021973
   6 H     1.0000    0     1.008   -2.901867    1.033000    1.189644

--------------------------------
INTERNAL COORDINATES (ANGSTROEM)
--------------------------------
 O      0   0   0     0.000000000000     0.00000000     0.00000000
 O      1   0   0     2.189509115664     0.00000000     0.00000000
 C      1   2   0     2.342648020227    62.33771285     0.00000000
 C      1   2   3     1.217756835608    27.01167585     0.46061384
 H      3   1   2     1.088627395456    85.50746503   188.46738169
 H      3   1   2     1.091534384259   117.63764252    78.35385677
 H      3   1   2     1.091392582090   124.93952072   298.88616028

---------------------------
INTERNAL COORDINATES (A.U.)
---------------------------
 O      0   0   0     0.000000000000     0.00000000     0.00000000
 O      1   0   0     4.137572596329     0.00000000     0.00000000
 C      1   2   0     4.426963186402    62.33771285     0.00000000
 C      1   2   3     2.301226917010    27.01167585     0.46061384
 H      3   1   2     2.057207639296    85.50746503   188.46738169
 H      3   1   2     2.062701052008   117.63764252    78.35385677
 H      3   1   2     2.062433084743   124.93952072   298.88616028

------------------------------------------------------------------------------
                   ___                                                        
                  /   \      - P O W E R E D   B Y -                         
                 /     \                                                     
                 |  |  |   _    _      __       _____    __    __             
                 |  |  |  | |  | |    /  \     |  _  \  |  |  /  |          
                  \  \/   | |  | |   /    \    | | | |  |  | /  /          
                 / \  \   | |__| |  /  /\  \   | |_| |  |  |/  /          
                |  |  |   |  __  | /  /__\  \  |    /   |      \           
                |  |  |   | |  | | |   __   |  |    \   |  |\   \          
                \     /   | |  | | |  |  |  |  | |\  \  |  | \   \       
                 \___/    |_|  |_| |__|  |__|  |_| \__\ |__|  \__/        
                                                                              
                      - O R C A' S   B I G   F R I E N D -                    
                                      &                                       
                       - I N T E G R A L  F E E D E R -                       
                                                                              
 v1 FN, 2020, v2 2021                                                         
------------------------------------------------------------------------------


Reading SHARK input file input.SHARKINP.tmp ... ok
----------------------
SHARK INTEGRAL PACKAGE
----------------------

Number of atoms                             ...      7
Number of basis functions                   ...     71
Number of shells                            ...     33
Maximum angular momentum                    ...      2
Integral batch strategy                     ... SHARK/LIBINT Hybrid
RI-J (if used) integral strategy            ... SPLIT-RIJ (Revised 2003 algorithm where possible)
Printlevel                                  ...      1
Contraction scheme used                     ... SEGMENTED contraction
Coulomb Range Separation                    ... NOT USED
Exchange Range Separation                   ... NOT USED
Finite Nucleus Model                        ... NOT USED
Auxiliary Coulomb fitting basis             ... NOT available
Auxiliary J/K fitting basis                 ... NOT available
Auxiliary Correlation fitting basis         ... NOT available
Auxiliary 'external' fitting basis          ... NOT available
Integral threshold                          ...     2.500000e-11
Primitive cut-off                           ...     2.500000e-12
Primitive pair pre-selection threshold      ...     2.500000e-12

Calculating pre-screening integrals         ... done (  0.0 sec) Dimension = 33
Organizing shell pair data                  ... done (  0.0 sec)
Shell pair information
Total number of shell pairs                 ...       561
Shell pairs after pre-screening             ...       558
Total number of primitive shell pairs       ...      2077
Primitive shell pairs kept                  ...      1713
          la=0 lb=0:    168 shell pairs
          la=1 lb=0:    198 shell pairs
          la=1 lb=1:     66 shell pairs
          la=2 lb=0:     72 shell pairs
          la=2 lb=1:     44 shell pairs
          la=2 lb=2:     10 shell pairs

Calculating one electron integrals          ... done (  0.0 sec)
Calculating Nuclear repulsion               ... done (  0.0 sec) ENN=    114.071572994239 Eh

SHARK setup successfully completed in   0.2 seconds

Maximum memory used throughout the entire GTOINT-calculation: 7.3 MB

Diagonalization of the overlap matrix:
Smallest eigenvalue                        ... 4.136e-03
Time for diagonalization                   ...    0.001 sec
Threshold for overlap eigenvalues          ... 1.000e-08
Number of eigenvalues below threshold      ... 0
Time for construction of square roots      ...    0.044 sec
Total time needed                          ...    0.044 sec


--------------------
CPCM SOLVATION MODEL
--------------------
CPCM parameters:
  Epsilon                                         ...      80.4000
  Refrac                                          ...       1.3300
  Rsolv                                           ...       1.3000
  Surface type                                    ... GAUSSIAN VDW
  Epsilon function type                           ...         CPCM
Radii:
 Radius for O  used is    3.4469 Bohr (=   1.8240 Ang.)
 Radius for C  used is    3.8550 Bohr (=   2.0400 Ang.)
 Radius for H  used is    2.4944 Bohr (=   1.3200 Ang.)
Calculating surface                               ...        done! (  0.0s)
GEPOL surface points                              ...          475
GEPOL Volume                                      ...     512.6360
GEPOL Surface-area                                ...     340.2826
Calculating surface distance matrix               ...        done! (  0.0s)
Performing Cholesky decomposition & store         ...        done! (  0.0s)
Overall time for CPCM initialization              ...                 0.0s
--------------
SCF ITERATIONS
--------------
ITER       Energy         Delta-E        Max-DP      RMS-DP      [F,P]     Damp
               ***  Starting incremental Fock matrix formation  ***
  0   -227.1595991833   0.000000000000 0.00626092  0.00038699  0.0244196 0.7000
                      *** Initiating the SOSCF procedure ***
                      *** Re-Reading the Fockian *** 
                      *** Removing any level shift *** 
ITER      Energy       Delta-E        Grad      Rot      Max-DP    RMS-DP
  1   -227.16058007  -0.0009808895  0.002349  0.002349  0.019406  0.001139
               *** Restarting incremental Fock matrix formation ***
  2   -227.16349330  -0.0029132238  0.003371  0.004036  0.007380  0.000404
  3   -227.16376616  -0.0002728653  0.001573  0.001835  0.004714  0.000269
  4   -227.16381094  -0.0000447817  0.000612  0.000612  0.001259  0.000054
  5   -227.16381706  -0.0000061125  0.000139  0.000279  0.000471  0.000024
  6   -227.16381778  -0.0000007233  0.000064  0.000228  0.000275  0.000015
  7   -227.16381793  -0.0000001490  0.000019  0.000015  0.000051  0.000003
  8   -227.16381794  -0.0000000089  0.000007  0.000008  0.000018  0.000001
                  ***Gradient check signals convergence***
              ***Rediagonalizing the Fockian in SOSCF/NRSCF***

               *****************************************************
               *                     SUCCESS                       *
               *           SCF CONVERGED AFTER   9 CYCLES          *
               *****************************************************

Total Energy       :         -227.16381794 Eh           -6181.44174 eV
  Last Energy change         ...   -1.2860e-09  Tolerance :   1.0000e-08
  Last MAX-Density change    ...    4.4397e-06  Tolerance :   1.0000e-07
             **** THE GBW FILE WAS UPDATED (input.gbw) ****
             **** DENSITY input.scfp WAS UPDATED ****
             **** ENERGY FILE WAS UPDATED (input.en.tmp) ****
             **** THE GBW FILE WAS UPDATED (input.gbw) ****
             **** DENSITY input.scfp WAS UPDATED ****
Total SCF time: 0 days 0 hours 0 min 3 sec 

Maximum memory used throughout the entire SCF-calculation: 228.6 MB

-------------------------   --------------------
FINAL SINGLE POINT ENERGY      -227.163817938664
-------------------------   --------------------

------------------------------------------------------------------------------
                         ORCA SCF GRADIENT CALCULATION
------------------------------------------------------------------------------

Gradient of the Hartree-Fock SCF energy:
Hartree-Fock type                ... RHF
Number of operators              ...    1
Number of atoms                  ...    7
Basis set dimensions             ...   71
Integral neglect threshold       ... 2.5e-11
Integral primitive cutoff        ... 2.5e-12
SHARK Integral package           ... ON

Nuc. rep. gradient       (SHARK) ... done (  0.0 sec)
HCore & Overlap gradient (SHARK) ... done (  0.0 sec)
Two-Electron gradient    (SHARK) ... done (  0.7 sec)

------------------
CARTESIAN GRADIENT
------------------

   1   O   :   -0.018909140    0.021320302   -0.001483018
   2   O   :   -0.000136335   -0.006564893    0.002143468
   3   C   :    0.006122225   -0.004839929   -0.000576747
   4   C   :    0.011356491   -0.011938038   -0.002573956
   5   H   :   -0.000830452    0.000754727    0.001359638
   6   H   :    0.001157468    0.001205828    0.001294703
   7   H   :    0.001239743    0.000062002   -0.000164088

Difference to translation invariance:
           :    0.0000000000   -0.0000000000   -0.0000000000

Difference to rotation invariance:
           :   -0.0003655568   -0.0003622958    0.0004959874

Norm of the cartesian gradient     ...    0.0347924957
RMS gradient                       ...    0.0075923450
MAX gradient                       ...    0.0213203023

-------
TIMINGS
-------

Total SCF gradient time            ...        0.922 sec

One electron gradient       ....       0.017 sec  (  1.8%)
Two electron gradient       ....       0.725 sec  ( 78.6%)
CPCM gradient               ....       0.075 sec  (  8.1%)
   A-Matrix (El+Nuc)        ....       0.014 sec  (  1.5%)
   Potential                ....       0.061 sec  (  6.6%)

Maximum memory used throughout the entire SCFGRAD-calculation: 16.5 MB
------------------------------------------------------------------------------
                         ORCA GEOMETRY RELAXATION STEP
------------------------------------------------------------------------------

Reading the OPT-File                    .... done
Getting information on internals        .... done
Copying old internal coords+grads       .... done
Making the new internal coordinates     .... (new redundants).... done
Validating the new internal coordinates .... (new redundants).... done
Calculating the B-matrix                .... done
Calculating the G,G- and P matrices     .... done
Transforming gradient to internals      .... done
Projecting the internal gradient        .... done
Number of atoms                         ....   7
Number of internal coordinates          ....  21
Current Energy                          ....  -227.163817939 Eh
Current gradient norm                   ....     0.034792496 Eh/bohr
Maximum allowed component of the step   ....  0.300
Current trust radius                    ....  0.300
Updating the Hessian (BFGS)             .... done
Forming the augmented Hessian           .... done
Diagonalizing the augmented Hessian     .... done
Last element of RFO vector              ....  0.989182335
Lowest eigenvalues of augmented Hessian:
 -0.001553250  0.014648318  0.015313668  0.118233800  0.142832335
Length of the computed step             ....  0.148295408
The final length of the internal step   ....  0.148295408
Converting the step to cartesian space:
 Initial RMS(Int)=    0.0323607110
Transforming coordinates:
 Iter   0:  RMS(Cart)=    0.0233809444 RMS(Int)=    0.0322192586
 Iter   1:  RMS(Cart)=    0.0009369749 RMS(Int)=    0.0008768889
 Iter   2:  RMS(Cart)=    0.0000222677 RMS(Int)=    0.0000206972
 Iter   3:  RMS(Cart)=    0.0000003466 RMS(Int)=    0.0000003757
 Iter   4:  RMS(Cart)=    0.0000000112 RMS(Int)=    0.0000000138
done
Storing new coordinates                 .... done

                                .--------------------.
          ----------------------|Geometry convergence|-------------------------
          Item                value                   Tolerance       Converged
          ---------------------------------------------------------------------
          Energy change      -0.0024858081            0.0000050000      NO
          RMS gradient        0.0067481946            0.0001000000      NO
          MAX gradient        0.0284302826            0.0003000000      NO
          RMS step            0.0323607110            0.0020000000      NO
          MAX step            0.0700230821            0.0040000000      NO
          ........................................................
          Max(Bonds)      0.0164      Max(Angles)    0.47
          Max(Dihed)        4.01      Max(Improp)    0.00
          ---------------------------------------------------------------------

The optimization has not yet converged - more geometry cycles are needed


    ---------------------------------------------------------------------------
                         Redundant Internal Coordinates
                            (Angstroem and degrees)

        Definition                    Value    dE/dq     Step     New-Value
    ----------------------------------------------------------------------------
     1. B(C   3,O   1)                1.2353 -0.006431  0.0026    1.2379   
     2. B(C   3,O   0)                1.2178 -0.028430  0.0164    1.2342   
     3. B(C   3,C   2)                1.5218 -0.007099  0.0071    1.5289   
     4. B(H   4,C   2)                1.0886 -0.000325  0.0003    1.0890   
     5. B(H   5,C   2)                1.0915 -0.001233  0.0010    1.0925   
     6. B(H   6,C   2)                1.0914 -0.000693  0.0002    1.0916   
     7. A(H   5,C   2,H   6)          106.64  0.000500    0.15    106.79   
     8. A(H   4,C   2,H   6)          109.27 -0.000290    0.19    109.45   
     9. A(C   3,C   2,H   4)          112.78  0.002006   -0.35    112.44   
    10. A(C   3,C   2,H   5)          109.02 -0.001441    0.14    109.16   
    11. A(H   4,C   2,H   5)          109.88  0.001245   -0.47    109.41   
    12. A(C   3,C   2,H   6)          109.06 -0.002125    0.46    109.52   
    13. A(O   1,C   3,C   2)          116.49  0.003923   -0.41    116.09   
    14. A(O   0,C   3,C   2)          117.11 -0.003639    0.23    117.35   
    15. A(O   0,C   3,O   1)          126.39 -0.000311    0.17    126.57   
    16. D(O   0,C   3,C   2,H   5)   -113.57 -0.002250    3.45   -110.12   
    17. D(O   0,C   3,C   2,H   6)    130.36 -0.000875    2.97    133.33   
[...]
                       ORCA ELECTRIC PROPERTIES CALCULATION
------------------------------------------------------------------------------

Dipole Moment Calculation                       ... on
Quadrupole Moment Calculation                   ... off
Polarizability Calculation                      ... off
GBWName                                         ... input.gbw
Electron density                                ... input.scfp
The origin for moment calculation is the CENTER OF MASS  = ( 0.774271,  0.411471  0.132513)

-------------
DIPOLE MOMENT
-------------
                                X             Y             Z
Electronic contribution:      3.15146       0.60566       0.31606
Nuclear contribution   :     -4.93954      -0.96375      -0.49908
                        -----------------------------------------
Total Dipole Moment    :     -1.78808      -0.35808      -0.18303
                        -----------------------------------------
Magnitude (a.u.)       :      1.83274
Magnitude (Debye)      :      4.65846



--------------------
Rotational spectrum 
--------------------
 
Rotational constants in cm-1:     0.400866     0.336858     0.189442 
Rotational constants in MHz : 12017.663056 10098.734723  5679.342096 

 Dipole components along the rotational axes: 
x,y,z [a.u.] :     1.830957    -0.079622    -0.014201 
x,y,z [Debye]:     4.653923    -0.202384    -0.036095 

 

-------------------------------------------------------------------------------
                               ORCA SCF HESSIAN
-------------------------------------------------------------------------------

                   --------- SHARK INITIALIZATION DONE ---------

Hessian of the Hartree-Fock SCF energy:
Hartree-Fock type                                ... RHF
Number of operators                              ...    1
Number of atoms                                  ...    7
Basis set dimensions                             ...   71
Integral neglect threshold                       ... 2.5e-11
Integral primitive cutoff                        ... 2.5e-12

Nuclear repulsion Hessian  (SHARK)               ... done   (      0.0 sec)

----------------------------------------------
Forming right-hand sides of CP-SCF equations     ...
----------------------------------------------
One electron integral derivatives  (SHARK)       ... done   (      0.0 sec)
C-PCM contribution to the Fock matrix derivative ... done   (      0.9 sec)
Transforming the overlap derivative matrices     ... done   (      0.2 sec)
Adding tr(S(x)F(y) C-PCM term to the hessian     ... done   (      0.0 sec)
Making the Q(x) pseudodensities                  ... done   (      0.0 sec)
Adding the E*S(x)*S(y) terms to the Hessian      ... done   (      0.0 sec)
Calculating energy weighted overlap derivatives  ... done   (      0.0 sec)
Two electron integral derivatives (SHARK)        ... done   (      1.1 sec)
tr(F(y)Q(x)) contribution to the Hessian         ... done   (      0.0 sec)
Response fock operator R(S(x)) (SHARK)           ... done   (      0.7 sec)
tr(F(y)S(x)) contribution to the Hessian         ... done   (      0.0 sec)
Transforming and finalizing RHSs                 ... done   (      0.0 sec)

----------------------------------------------
Solving the CP-SCF equations                     ...
----------------------------------------------
     CP-SCF ITERATION   0:   1.6878e-01 (   0.8 sec   0/ 21 done)
     CP-SCF ITERATION   1:   3.6021e-02 (   0.8 sec   0/ 21 done)
     CP-SCF ITERATION   2:   1.3380e-02 (   0.8 sec   0/ 21 done)
     CP-SCF ITERATION   3:   3.5541e-03 (   0.8 sec   0/ 21 done)
     CP-SCF ITERATION   4:   1.1836e-03 (   0.8 sec   1/ 21 done)
     CP-SCF ITERATION   5:   3.5375e-04 (   0.8 sec   9/ 21 done)
     CP-SCF ITERATION   6:   1.0436e-04 (   0.6 sec  19/ 21 done)
     CP-SCF ITERATION   7:   2.3781e-05 (   0.3 sec  21/ 21 done)
                    *** THE CP-SCF HAS CONVERGED ***

                                                 ... done   (      5.9 sec)
Forming perturbed density Hessian contributions  ... done   (      0.0 sec)
Calculating [Q*(d^2 A/dXdY)*Q  ] C-PCM term      ... done   (      0.0 sec)
Calculating [d^2(V_N)/(dXdY)*Q ] C-PCM term      ... done   (      0.0 sec)
Calculating [d^2(V_el)/(dXdY)*Q] C-PCM term      ... done   (      0.1 sec)
Calculating C-PCM term that depends on dQ/dX     ... done   (      0.0 sec)
2nd integral derivative contribs (SHARK)         ... done   (      5.7 sec)
Dipole derivatives                               ... (center of mass:  0.774271,  0.411471  0.132513)done   (      0.1 sec)

Total SCF Hessian time: 0 days 0 hours 0 min 15 sec 

Writing the Hessian file to the disk             ... done


Maximum memory used throughout the entire SCFHESS-calculation: 60.8 MB

-----------------------
VIBRATIONAL FREQUENCIES
-----------------------

Scaling factor for frequencies =  1.000000000  (already applied!)

   0:         0.00 cm**-1
   1:         0.00 cm**-1
   2:         0.00 cm**-1
   3:         0.00 cm**-1
   4:         0.00 cm**-1
   5:         0.00 cm**-1
   6:       -29.56 cm**-1 ***imaginary mode***
   7:       487.88 cm**-1
   8:       671.24 cm**-1
   9:       704.14 cm**-1
  10:       994.60 cm**-1
  11:      1097.70 cm**-1
  12:      1141.82 cm**-1
  13:      1455.66 cm**-1
  14:      1544.01 cm**-1
  15:      1563.84 cm**-1
  16:      1586.36 cm**-1
  17:      1824.83 cm**-1
  18:      3171.38 cm**-1
  19:      3248.54 cm**-1
  20:      3275.00 cm**-1


------------
NORMAL MODES
------------

These modes are the Cartesian displacements weighted by the diagonal matrix
M(i,i)=1/sqrt(m[i]) where m[i] is the mass of the displaced atom
Thus, these vectors are normalized but *not* orthogonal

                  0          1          2          3          4          5    
      0       0.000000   0.000000   0.000000   0.000000   0.000000   0.000000
      1       0.000000   0.000000   0.000000   0.000000   0.000000   0.000000
      2       0.000000   0.000000   0.000000   0.000000   0.000000   0.000000
      3       0.000000   0.000000   0.000000   0.000000   0.000000   0.000000
      4       0.000000   0.000000   0.000000   0.000000   0.000000   0.000000
      5       0.000000   0.000000   0.000000   0.000000   0.000000   0.000000
      6       0.000000   0.000000   0.000000   0.000000   0.000000   0.000000
      7       0.000000   0.000000   0.000000   0.000000   0.000000   0.000000
      8       0.000000   0.000000   0.000000   0.000000   0.000000   0.000000
      9       0.000000   0.000000   0.000000   0.000000   0.000000   0.000000
     10       0.000000   0.000000   0.000000   0.000000   0.000000   0.000000
     11       0.000000   0.000000   0.000000   0.000000   0.000000   0.000000
     12       0.000000   0.000000   0.000000   0.000000   0.000000   0.000000
     13       0.000000   0.000000   0.000000   0.000000   0.000000   0.000000
     14       0.000000   0.000000   0.000000   0.000000   0.000000   0.000000
     15       0.000000   0.000000   0.000000   0.000000   0.000000   0.000000
     16       0.000000   0.000000   0.000000   0.000000   0.000000   0.000000
     17       0.000000   0.000000   0.000000   0.000000   0.000000   0.000000
     18       0.000000   0.000000   0.000000   0.000000   0.000000   0.000000
     19       0.000000   0.000000   0.000000   0.000000   0.000000   0.000000
     20       0.000000   0.000000   0.000000   0.000000   0.000000   0.000000
                  6          7          8          9         10         11    
      0       0.000427  -0.204834  -0.027422   0.193190   0.095933  -0.049743
      1       0.002515   0.011041  -0.035320   0.206152  -0.306671   0.022270
      2       0.056272  -0.016009  -0.089778  -0.027070   0.021301  -0.006232
      3      -0.001268   0.199658  -0.027637   0.238491  -0.052422   0.042176
      4      -0.004468   0.091397   0.013792  -0.132152   0.296201   0.065221
      5      -0.044997   0.014085  -0.103694  -0.010240  -0.023659   0.002317
      6       0.000063   0.024436   0.063261  -0.378009  -0.280076   0.011587
      7       0.002510  -0.181708   0.009985  -0.057752  -0.023764  -0.173516
      8      -0.005993   0.010323   0.047099  -0.023650  -0.029201   0.012274
      9       0.003101  -0.029730  -0.017107  -0.094124   0.328642   0.009799
     10      -0.005774   0.140380   0.018168  -0.020079   0.066850   0.013347
     11      -0.016753  -0.015302   0.268210   0.106149   0.043935  -0.002620
     12       0.055319   0.559600   0.022044  -0.435616  -0.319983  -0.762983
     13      -0.095594  -0.285540  -0.045357  -0.080289  -0.040560  -0.025443
     14      -0.521571   0.029289  -0.344023  -0.176376  -0.049420  -0.059414
     15      -0.163861  -0.154079   0.707654  -0.180019  -0.443719   0.211606
     16       0.556044  -0.369212   0.179119  -0.022278  -0.142033   0.265050
     17       0.192297   0.016714  -0.115862  -0.082865  -0.024674   0.061362
     18       0.084193  -0.260300  -0.405754  -0.610230  -0.505609   0.416666
     19      -0.390556  -0.478689  -0.127535  -0.144545  -0.164625   0.280262
     20       0.421361   0.043858  -0.226441  -0.131618  -0.064038  -0.054841
                 12         13         14         15         16         17    
      0      -0.001633  -0.040289   0.032011   0.016946   0.148407   0.177671
      1       0.002082   0.041345  -0.030364  -0.015399  -0.134051  -0.245087
      2       0.050048  -0.006145   0.004125   0.000286   0.022001   0.029132
      3      -0.003815  -0.021129   0.007347   0.010066   0.086348  -0.058608
      4       0.001588  -0.056989   0.016399   0.022676   0.204269  -0.279556
      5       0.048075   0.000771   0.000231  -0.004012  -0.000798   0.008602
      6      -0.023469   0.139898   0.014140   0.002635   0.151149   0.016880
      7       0.010537   0.018011  -0.056241   0.008912   0.056049  -0.052213
      8       0.168779   0.018173   0.004692   0.058185  -0.009943   0.003921
      9       0.025062   0.069823  -0.056954  -0.044726  -0.395802  -0.175660
     10      -0.012391   0.017688   0.004931  -0.010377  -0.107918   0.756245
     11      -0.248619   0.006990  -0.005351   0.017127  -0.042230  -0.054760
     12      -0.053368  -0.511040   0.322294   0.129558  -0.511153  -0.344288
     13      -0.065102   0.116955  -0.074144  -0.143073   0.228360   0.032296
     14      -0.321382  -0.118751   0.178302  -0.702766   0.139676  -0.080179
     15       0.661527  -0.547979  -0.245343  -0.261688  -0.060305   0.143408
     16       0.056733  -0.109498   0.590515  -0.379013  -0.225980  -0.085976
     17      -0.045967   0.187987   0.251223   0.029011   0.002627  -0.051357
     18      -0.540679  -0.465121  -0.191484   0.204941  -0.239367   0.203090
     19      -0.027792  -0.184535   0.316681   0.424033  -0.498820  -0.008192
     20      -0.238725  -0.283776  -0.490818  -0.164490   0.142828   0.138398
                 18         19         20    
      0       0.000717   0.000104  -0.000289
      1      -0.000406  -0.000153   0.000926
      2       0.000111  -0.000109  -0.000132
      3       0.000486   0.000025  -0.000221
      4       0.000700   0.000145   0.000565
      5       0.000009   0.000165   0.000006
      6       0.050173   0.015745   0.011615
      7       0.000530  -0.001103  -0.094270
      8       0.014554  -0.091260   0.002674
      9      -0.004824  -0.000787   0.001549
     10      -0.001102  -0.000115  -0.002240
     11      -0.000382  -0.000487   0.000268
     12      -0.089528  -0.037318   0.163062
     13      -0.479545  -0.197259   0.816936
     14       0.084087   0.021683  -0.140643
     15      -0.183679   0.209621  -0.060247
     16       0.161233  -0.175840   0.041407
     17      -0.614947   0.653575  -0.202100
     18      -0.286264  -0.352598  -0.251583
     19       0.320467   0.387745   0.267980
     20       0.360077   0.417080   0.309698


-----------
IR SPECTRUM
-----------

 Mode   freq       eps      Int      T**2         TX        TY        TZ
       cm**-1   L/(mol*cm) km/mol    a.u.
----------------------------------------------------------------------------
  7:    487.88   0.000166    0.84  0.000106  (-0.003237 -0.009780 -0.000080)
  8:    671.24   0.005221   26.39  0.002427  ( 0.010958  0.005067  0.047767)
  9:    704.14   0.009697   49.00  0.004298  (-0.064382 -0.009822  0.007483)
 10:    994.60   0.009625   48.64  0.003020  ( 0.052495  0.014978  0.006303)
 11:   1097.70   0.004511   22.80  0.001283  ( 0.010231 -0.034260  0.002033)
 12:   1141.82   0.004511   22.79  0.001233  ( 0.000997 -0.001248 -0.035074)
 13:   1455.66   0.001867    9.44  0.000400  ( 0.016442  0.011376 -0.000743)
 14:   1544.01   0.013523   68.34  0.002733  (-0.045079  0.025814 -0.005883)
 15:   1563.84   0.005878   29.70  0.001173  (-0.028391 -0.009586 -0.016583)
 16:   1586.36   0.095190  481.05  0.018725  (-0.130821 -0.039029 -0.009385)
 17:   1824.83   0.211071  1066.67  0.036095  (-0.042419  0.184706 -0.013397)
 18:   3171.38   0.002854   14.42  0.000281  ( 0.016248  0.001267  0.003907)
 19:   3248.54   0.008497   42.94  0.000816  ( 0.006514  0.000337 -0.027815)
 20:   3275.00   0.012250   61.91  0.001167  ( 0.001696 -0.034110  0.000945)

* The epsilon (eps) is given for a Dirac delta lineshape.
** The dipole moment derivative (T) already includes vibrational overlap.

The first frequency considered to be a vibration is 7
The total number of vibrations considered is 14


--------------------------
THERMOCHEMISTRY AT 298.15K
--------------------------

Temperature         ... 298.15 K
Pressure            ... 1.00 atm
Total Mass          ... 59.04 AMU

Throughout the following assumptions are being made:
  (1) The electronic state is orbitally nondegenerate
  (2) There are no thermally accessible electronically excited states
  (3) Hindered rotations indicated by low frequency modes are not
      treated as such but are treated as vibrations and this may
      cause some error
  (4) All equations used are the standard statistical mechanics
      equations for an ideal gas
  (5) All vibrations are strictly harmonic

freq.     487.88  E(vib)   ...       0.15 
freq.     671.24  E(vib)   ...       0.08 
freq.     704.14  E(vib)   ...       0.07 
freq.     994.60  E(vib)   ...       0.02 
freq.    1097.70  E(vib)   ...       0.02 
freq.    1141.82  E(vib)   ...       0.01 
freq.    1455.66  E(vib)   ...       0.00 
freq.    1544.01  E(vib)   ...       0.00 
freq.    1563.84  E(vib)   ...       0.00 
freq.    1586.36  E(vib)   ...       0.00 
freq.    1824.83  E(vib)   ...       0.00 
freq.    3171.38  E(vib)   ...       0.00 
freq.    3248.54  E(vib)   ...       0.00 
freq.    3275.00  E(vib)   ...       0.00 

------------
INNER ENERGY
------------

The inner energy is: U= E(el) + E(ZPE) + E(vib) + E(rot) + E(trans)
    E(el)   - is the total energy from the electronic structure calculation
              = E(kin-el) + E(nuc-el) + E(el-el) + E(nuc-nuc)
    E(ZPE)  - the the zero temperature vibrational energy from the frequency calculation
    E(vib)  - the the finite temperature correction to E(ZPE) due to population
              of excited vibrational states
    E(rot)  - is the rotational thermal energy
    E(trans)- is the translational thermal energy

Summary of contributions to the inner energy U:
Electronic energy                ...   -227.16448714 Eh
Zero point energy                ...      0.05186708 Eh      32.55 kcal/mol
Thermal vibrational correction   ...      0.00057139 Eh       0.36 kcal/mol
Thermal rotational correction    ...      0.00141627 Eh       0.89 kcal/mol
Thermal translational correction ...      0.00141627 Eh       0.89 kcal/mol
-----------------------------------------------------------------------
Total thermal energy                   -227.10921613 Eh


Summary of corrections to the electronic energy:
(perhaps to be used in another calculation)
Total thermal correction                  0.00340394 Eh       2.14 kcal/mol
Non-thermal (ZPE) correction              0.05186708 Eh      32.55 kcal/mol
-----------------------------------------------------------------------
Total correction                          0.05527102 Eh      34.68 kcal/mol


--------
ENTHALPY
--------

The enthalpy is H = U + kB*T
                kB is Boltzmann's constant
Total free energy                 ...   -227.10921613 Eh 
Thermal Enthalpy correction       ...      0.00094421 Eh       0.59 kcal/mol
-----------------------------------------------------------------------
Total Enthalpy                    ...   -227.10827192 Eh


Note: Only C1 symmetry has been detected, increase convergence thresholds 
      if your molecule has a higher symmetry. Symmetry factor of 1.0 is   
      used for the rotational entropy correction. 
 

Note: Rotational entropy computed according to Herzberg 
Infrared and Raman Spectra, Chapter V,1, Van Nostrand Reinhold, 1945 
Point Group:  C1, Symmetry Number:   1  
Rotational constants in cm-1:     0.400866     0.336858     0.189442 

Vibrational entropy computed according to the QRRHO of S. Grimme
Chem.Eur.J. 2012 18 9955


-------
ENTROPY
-------

The entropy contributions are T*S = T*(S(el)+S(vib)+S(rot)+S(trans))
     S(el)   - electronic entropy
     S(vib)  - vibrational entropy
     S(rot)  - rotational entropy
     S(trans)- translational entropy
The entropies will be listed as multiplied by the temperature to get
units of energy

Electronic entropy                ...      0.00000000 Eh      0.00 kcal/mol
Vibrational entropy               ...      0.00075512 Eh      0.47 kcal/mol
Rotational entropy                ...      0.01124144 Eh      7.05 kcal/mol
Translational entropy             ...      0.01812503 Eh     11.37 kcal/mol
-----------------------------------------------------------------------
Final entropy term                ...      0.03012159 Eh     18.90 kcal/mol

In case the symmetry of your molecule has not been determined correctly
or in case you have a reason to use a different symmetry number we print 
out the resulting rotational entropy values for sn=1,12 :
 --------------------------------------------------------
|  sn= 1 | S(rot)=       0.01124144 Eh      7.05 kcal/mol|
|  sn= 2 | S(rot)=       0.01058699 Eh      6.64 kcal/mol|
|  sn= 3 | S(rot)=       0.01020415 Eh      6.40 kcal/mol|
|  sn= 4 | S(rot)=       0.00993253 Eh      6.23 kcal/mol|
|  sn= 5 | S(rot)=       0.00972184 Eh      6.10 kcal/mol|
|  sn= 6 | S(rot)=       0.00954970 Eh      5.99 kcal/mol|
|  sn= 7 | S(rot)=       0.00940415 Eh      5.90 kcal/mol|
|  sn= 8 | S(rot)=       0.00927807 Eh      5.82 kcal/mol|
|  sn= 9 | S(rot)=       0.00916687 Eh      5.75 kcal/mol|
|  sn=10 | S(rot)=       0.00906739 Eh      5.69 kcal/mol|
|  sn=11 | S(rot)=       0.00897740 Eh      5.63 kcal/mol|
|  sn=12 | S(rot)=       0.00889524 Eh      5.58 kcal/mol|
 --------------------------------------------------------


-------------------
GIBBS FREE ENERGY
-------------------

The Gibbs free energy is G = H - T*S

Total enthalpy                    ...   -227.10827192 Eh 
Total entropy correction          ...     -0.03012159 Eh    -18.90 kcal/mol
-----------------------------------------------------------------------
Final Gibbs free energy         ...   -227.13839351 Eh

For completeness - the Gibbs free energy minus the electronic energy
G-E(el)                           ...      0.02609364 Eh     16.37 kcal/mol


Timings for individual modules:

Sum of individual times         ...       49.765 sec (=   0.829 min)
GTO integral calculation        ...        1.348 sec (=   0.022 min)   2.7 %
SCF iterations                  ...       24.733 sec (=   0.412 min)  49.7 %
SCF Gradient evaluation         ...        7.453 sec (=   0.124 min)  15.0 %
Geometry relaxation             ...        0.183 sec (=   0.003 min)   0.4 %
Analytical frequency calculation...       16.048 sec (=   0.267 min)  32.2 %
                             ****ORCA TERMINATED NORMALLY****
TOTAL RUN TIME: 0 days 0 hours 0 minutes 50 seconds 821 msec
