
                                 *****************
                                 * O   R   C   A *
                                 *****************

                                            #,                                       
                                            ###                                      
                                            ####                                     
                                            #####                                    
                                            ######                                   
                                           ########,                                 
                                     ,,################,,,,,                         
                               ,,#################################,,                 
                          ,,##########################################,,             
                       ,#########################################, ''#####,          
                    ,#############################################,,   '####,        
                  ,##################################################,,,,####,       
                ,###########''''           ''''###############################       
              ,#####''   ,,,,##########,,,,          '''####'''          '####       
            ,##' ,,,,###########################,,,                        '##       
           ' ,,###''''                  '''############,,,                           
         ,,##''                                '''############,,,,        ,,,,,,###''
      ,#''                                            '''#######################'''  
     '                                                          ''''####''''         
             ,#######,   #######,   ,#######,      ##                                
            ,#'     '#,  ##    ##  ,#'     '#,    #''#        ######   ,####,        
            ##       ##  ##   ,#'  ##            #'  '#       #        #'  '#        
            ##       ##  #######   ##           ,######,      #####,   #    #        
            '#,     ,#'  ##    ##  '#,     ,#' ,#      #,         ##   #,  ,#        
             '#######'   ##     ##  '#######'  #'      '#     #####' # '####'        



                  #######################################################
                  #                        -***-                        #
                  #          Department of theory and spectroscopy      #
                  #    Directorship and core code : Frank Neese         #
                  #        Max Planck Institute fuer Kohlenforschung    #
                  #                Kaiser Wilhelm Platz 1               #
                  #                 D-45470 Muelheim/Ruhr               #
                  #                      Germany                        #
                  #                                                     #
                  #                  All rights reserved                #
                  #                        -***-                        #
                  #######################################################


                         Program Version 5.0.4 -  RELEASE  -


 With contributions from (in alphabetic order):
   Daniel Aravena         : Magnetic Suceptibility
   Michael Atanasov       : Ab Initio Ligand Field Theory (pilot matlab implementation)
   Alexander A. Auer      : GIAO ZORA, VPT2 properties, NMR spectrum
   Ute Becker             : Parallelization
   Giovanni Bistoni       : ED, misc. LED, open-shell LED, HFLD
   Martin Brehm           : Molecular dynamics
   Dmytro Bykov           : SCF Hessian
   Vijay G. Chilkuri      : MRCI spin determinant printing, contributions to CSF-ICE
   Dipayan Datta          : RHF DLPNO-CCSD density
   Achintya Kumar Dutta   : EOM-CC, STEOM-CC
   Dmitry Ganyushin       : Spin-Orbit,Spin-Spin,Magnetic field MRCI
   Miquel Garcia          : C-PCM and meta-GGA Hessian, CC/C-PCM, Gaussian charge scheme
   Yang Guo               : DLPNO-NEVPT2, F12-NEVPT2, CIM, IAO-localization
   Andreas Hansen         : Spin unrestricted coupled pair/coupled cluster methods
   Benjamin Helmich-Paris : MC-RPA, TRAH-SCF, COSX integrals
   Lee Huntington         : MR-EOM, pCC
   Robert Izsak           : Overlap fitted RIJCOSX, COSX-SCS-MP3, EOM
   Marcus Kettner         : VPT2
   Christian Kollmar      : KDIIS, OOCD, Brueckner-CCSD(T), CCSD density, CASPT2, CASPT2-K
   Simone Kossmann        : Meta GGA functionals, TD-DFT gradient, OOMP2, MP2 Hessian
   Martin Krupicka        : Initial AUTO-CI
   Lucas Lang             : DCDCAS
   Marvin Lechner         : AUTO-CI (C++ implementation), FIC-MRCC
   Dagmar Lenk            : GEPOL surface, SMD
   Dimitrios Liakos       : Extrapolation schemes; Compound Job, initial MDCI parallelization
   Dimitrios Manganas     : Further ROCIS development; embedding schemes
   Dimitrios Pantazis     : SARC Basis sets
   Anastasios Papadopoulos: AUTO-CI, single reference methods and gradients
   Taras Petrenko         : DFT Hessian,TD-DFT gradient, ASA, ECA, R-Raman, ABS, FL, XAS/XES, NRVS
   Peter Pinski           : DLPNO-MP2, DLPNO-MP2 Gradient
   Christoph Reimann      : Effective Core Potentials
   Marius Retegan         : Local ZFS, SOC
   Christoph Riplinger    : Optimizer, TS searches, QM/MM, DLPNO-CCSD(T), (RO)-DLPNO pert. Triples
   Tobias Risthaus        : Range-separated hybrids, TD-DFT gradient, RPA, STAB
   Michael Roemelt        : Original ROCIS implementation
   Masaaki Saitow         : Open-shell DLPNO-CCSD energy and density
   Barbara Sandhoefer     : DKH picture change effects
   Avijit Sen             : IP-ROCIS
   Kantharuban Sivalingam : CASSCF convergence, NEVPT2, FIC-MRCI
   Bernardo de Souza      : ESD, SOC TD-DFT
   Georgi Stoychev        : AutoAux, RI-MP2 NMR, DLPNO-MP2 response
   Willem Van den Heuvel  : Paramagnetic NMR
   Boris Wezisla          : Elementary symmetry handling
   Frank Wennmohs         : Technical directorship


 We gratefully acknowledge several colleagues who have allowed us to
 interface, adapt or use parts of their codes:
   Stefan Grimme, W. Hujo, H. Kruse, P. Pracht,  : VdW corrections, initial TS optimization,
                  C. Bannwarth, S. Ehlert          DFT functionals, gCP, sTDA/sTD-DF
   Ed Valeev, F. Pavosevic, A. Kumar             : LibInt (2-el integral package), F12 methods
   Garnet Chan, S. Sharma, J. Yang, R. Olivares  : DMRG
   Ulf Ekstrom                                   : XCFun DFT Library
   Mihaly Kallay                                 : mrcc  (arbitrary order and MRCC methods)
   Jiri Pittner, Ondrej Demel                    : Mk-CCSD
   Frank Weinhold                                : gennbo (NPA and NBO analysis)
   Christopher J. Cramer and Donald G. Truhlar   : smd solvation model
   Lars Goerigk                                  : TD-DFT with DH, B97 family of functionals
   V. Asgeirsson, H. Jonsson                     : NEB implementation
   FAccTs GmbH                                   : IRC, NEB, NEB-TS, DLPNO-Multilevel, CI-OPT
                                                   MM, QMMM, 2- and 3-layer-ONIOM, Crystal-QMMM,
                                                   LR-CPCM, SF, NACMEs, symmetry and pop. for TD-DFT,
                                                   nearIR, NL-DFT gradient (VV10), updates on ESD,
                                                   ML-optimized integration grids
   S Lehtola, MJT Oliveira, MAL Marques          : LibXC Library
   Liviu Ungur et al                             : ANISO software


 Your calculation uses the libint2 library for the computation of 2-el integrals
 For citations please refer to: http://libint.valeyev.net

 Your ORCA version has been built with support for libXC version: 5.1.0
 For citations please refer to: https://tddft.org/programs/libxc/

 This ORCA versions uses:
   CBLAS   interface :  Fast vector & matrix operations
   LAPACKE interface :  Fast linear algebra routines
   SCALAPACK package :  Parallel linear algebra routines
   Shared memory     :  Shared parallel matrices
   BLAS/LAPACK       :  OpenBLAS 0.3.15  USE64BITINT DYNAMIC_ARCH NO_AFFINITY Zen SINGLE_THREADED
        Core in use  :  Zen
   Copyright (c) 2011-2014, The OpenBLAS Project




***************************************
The coordinates will be read from file: molecule.xyz
***************************************


================================================================================

----- Orbital basis set information -----
Your calculation utilizes the basis: def2-SVP
   F. Weigend and R. Ahlrichs, Phys. Chem. Chem. Phys. 7, 3297 (2005).

================================================================================
                                        WARNINGS
                       Please study these warnings very carefully!
================================================================================


WARNING: Geometry Optimization
  ===> : Switching off AutoStart
         For restart on a previous wavefunction, please use MOREAD

INFO   : the flag for use of the SHARK integral package has been found!

================================================================================
                                       INPUT FILE
================================================================================
NAME = input.inp
|  1> ! HF def2-SVP TightSCF CPCM(water) OPT Freq
|  2> %geom  
|  3>    MaxIter 200
|  4> end* xyzfile 0 1 molecule.xyz
|  5> 
|  6>                          ****END OF INPUT****
================================================================================

                       *****************************
                       * Geometry Optimization Run *
                       *****************************

Geometry optimization settings:
Update method            Update   .... BFGS
Choice of coordinates    CoordSys .... Z-matrix Internals
Initial Hessian          InHess   .... Almoef's Model

Convergence Tolerances:
Energy Change            TolE     ....  5.0000e-06 Eh
Max. Gradient            TolMAXG  ....  3.0000e-04 Eh/bohr
RMS Gradient             TolRMSG  ....  1.0000e-04 Eh/bohr
Max. Displacement        TolMAXD  ....  4.0000e-03 bohr
RMS Displacement         TolRMSD  ....  2.0000e-03 bohr
Strict Convergence                ....  False
------------------------------------------------------------------------------
                        ORCA OPTIMIZATION COORDINATE SETUP
------------------------------------------------------------------------------

The optimization will be done in new redundant internal coordinates
Making redundant internal coordinates   ...  (new redundants) done
Evaluating the initial hessian          ...  (Almloef) done
Evaluating the coordinates              ...  done
Calculating the B-matrix                .... done
Calculating the G-matrix                .... done
Diagonalizing the G-matrix              .... done
The first mode is                       ....    7
The number of degrees of freedom        ....   18

    -----------------------------------------------------------------
                    Redundant Internal Coordinates


    -----------------------------------------------------------------
         Definition                    Initial Value    Approx d2E/dq
    -----------------------------------------------------------------
      1. B(C   3,O   1)                  1.2564         0.914205   
      2. B(C   3,C   2)                  1.4820         0.445580   
      3. B(C   3,O   0)                  1.3738         0.594002   
      4. B(H   4,O   0)                  1.0167         0.422243   
      5. B(H   5,C   2)                  1.0891         0.361316   
      6. B(H   6,C   2)                  1.1158         0.327586   
      7. B(H   7,C   2)                  1.1238         0.318077   
      8. A(C   3,O   0,H   4)          119.2708         0.354591   
      9. A(H   5,C   2,H   7)          107.8489         0.285399   
     10. A(C   3,C   2,H   7)          106.5256         0.327114   
     11. A(C   3,C   2,H   5)          114.1865         0.334083   
     12. A(C   3,C   2,H   6)          109.2179         0.328707   
     13. A(H   5,C   2,H   6)          113.1023         0.286713   
     14. A(H   6,C   2,H   7)          105.3600         0.281091   
     15. A(O   1,C   3,C   2)          117.1779         0.435748   
     16. A(O   0,C   3,C   2)          124.5761         0.403508   
     17. A(O   0,C   3,O   1)          118.2460         0.456018   
     18. D(C   2,C   3,O   0,H   4)    160.4623         0.025736   
     19. D(O   0,C   3,C   2,H   5)     12.3145         0.014645   
     20. D(O   0,C   3,C   2,H   6)   -115.4256         0.014645   
     21. D(O   0,C   3,C   2,H   7)    131.2443         0.014645   
     22. D(O   1,C   3,C   2,H   5)   -167.6855         0.014645   
     23. D(O   1,C   3,C   2,H   6)     64.5744         0.014645   
     24. D(O   1,C   3,C   2,H   7)    -48.7557         0.014645   
     25. D(O   1,C   3,O   0,H   4)    -19.5377         0.025736   
    -----------------------------------------------------------------

Number of atoms                         .... 8
Number of degrees of freedom            .... 25

         *************************************************************
         *                GEOMETRY OPTIMIZATION CYCLE   1            *
         *************************************************************
---------------------------------
CARTESIAN COORDINATES (ANGSTROEM)
---------------------------------
  O      1.437640   -0.738140    0.232040
  O      0.794950    1.419990    0.062290
  C     -0.986070   -0.090640   -0.085390
  C      0.456330    0.210150    0.073960
  H      2.404320   -0.490280    0.037870
  H     -1.254490   -1.121660    0.140550
  H     -1.319750    0.236660   -1.098530
  H     -1.532920    0.573930    0.637230

----------------------------
CARTESIAN COORDINATES (A.U.)
----------------------------
  NO LB      ZA    FRAG     MASS         X           Y           Z
   0 O     8.0000    0    15.999    2.716746   -1.394882    0.438492
   1 O     8.0000    0    15.999    1.502238    2.683392    0.117711
   2 C     6.0000    0    12.011   -1.863402   -0.171285   -0.161364
   3 C     6.0000    0    12.011    0.862339    0.397126    0.139764
   4 H     1.0000    0     1.008    4.543506   -0.926495    0.071564
   5 H     1.0000    0     1.008   -2.370643   -2.119630    0.265601
   6 H     1.0000    0     1.008   -2.493966    0.447223   -2.075921
   7 H     1.0000    0     1.008   -2.896799    1.084571    1.204190

--------------------------------
INTERNAL COORDINATES (ANGSTROEM)
--------------------------------
 O      0   0   0     0.000000000000     0.00000000     0.00000000
 O      1   0   0     2.258183029672     0.00000000     0.00000000
 C      2   1   0     2.340052268583    66.69698106     0.00000000
 C      2   1   3     1.256388681460    32.40544217     0.00000000
 H      1   2   3     1.016664541970    91.33283156   163.03386175
 H      3   2   1     1.089082375397   141.77893408    18.32813993
 H      3   2   1     1.115759961640    95.48313247   238.95192286
 H      3   2   1     1.123778390876    87.02056879   133.79491426

---------------------------
INTERNAL COORDINATES (A.U.)
---------------------------
 O      0   0   0     0.000000000000     0.00000000     0.00000000
 O      1   0   0     4.267347486349     0.00000000     0.00000000
 C      2   1   0     4.422057926683    66.69698106     0.00000000
 C      2   1   3     2.374230525717    32.40544217     0.00000000
 H      1   2   3     1.921217554393    91.33283156   163.03386175
 H      3   2   1     2.058067426780   141.77893408    18.32813993
 H      3   2   1     2.108480758695    95.48313247   238.95192286
 H      3   2   1     2.123633393974    87.02056879   133.79491426

---------------------
BASIS SET INFORMATION
---------------------
There are 3 groups of distinct atoms

 Group   1 Type O   : 7s4p1d contracted to 3s2p1d pattern {511/31/1}
 Group   2 Type C   : 7s4p1d contracted to 3s2p1d pattern {511/31/1}
 Group   3 Type H   : 4s1p contracted to 2s1p pattern {31/1}

Atom   0O    basis set group =>   1
Atom   1O    basis set group =>   1
Atom   2C    basis set group =>   2
Atom   3C    basis set group =>   2
Atom   4H    basis set group =>   3
Atom   5H    basis set group =>   3
Atom   6H    basis set group =>   3
Atom   7H    basis set group =>   3
------------------------------------------------------------------------------
                           ORCA GTO INTEGRAL CALCULATION
------------------------------------------------------------------------------
------------------------------------------------------------------------------
                   ___                                                        
                  /   \      - P O W E R E D   B Y -                         
                 /     \                                                     
                 |  |  |   _    _      __       _____    __    __             
                 |  |  |  | |  | |    /  \     |  _  \  |  |  /  |          
                  \  \/   | |  | |   /    \    | | | |  |  | /  /          
                 / \  \   | |__| |  /  /\  \   | |_| |  |  |/  /          
                |  |  |   |  __  | /  /__\  \  |    /   |      \           
                |  |  |   | |  | | |   __   |  |    \   |  |\   \          
                \     /   | |  | | |  |  |  |  | |\  \  |  | \   \       
                 \___/    |_|  |_| |__|  |__|  |_| \__\ |__|  \__/        
                                                                              
                      - O R C A' S   B I G   F R I E N D -                    
                                      &                                       
                       - I N T E G R A L  F E E D E R -                       
                                                                              
 v1 FN, 2020, v2 2021                                                         
------------------------------------------------------------------------------


Reading SHARK input file input.SHARKINP.tmp ... ok
----------------------
SHARK INTEGRAL PACKAGE
----------------------

Number of atoms                             ...      8
Number of basis functions                   ...     76
Number of shells                            ...     36
Maximum angular momentum                    ...      2
Integral batch strategy                     ... SHARK/LIBINT Hybrid
RI-J (if used) integral strategy            ... SPLIT-RIJ (Revised 2003 algorithm where possible)
Printlevel                                  ...      1
Contraction scheme used                     ... SEGMENTED contraction
Coulomb Range Separation                    ... NOT USED
Exchange Range Separation                   ... NOT USED
Finite Nucleus Model                        ... NOT USED
Auxiliary Coulomb fitting basis             ... NOT available
Auxiliary J/K fitting basis                 ... NOT available
Auxiliary Correlation fitting basis         ... NOT available
Auxiliary 'external' fitting basis          ... NOT available
Integral threshold                          ...     2.500000e-11
Primitive cut-off                           ...     2.500000e-12
Primitive pair pre-selection threshold      ...     2.500000e-12

Calculating pre-screening integrals         ... done (  0.0 sec) Dimension = 36
Organizing shell pair data                  ... done (  0.0 sec)
Shell pair information
Total number of shell pairs                 ...       666
Shell pairs after pre-screening             ...       663
Total number of primitive shell pairs       ...      2410
Primitive shell pairs kept                  ...      1974
          la=0 lb=0:    207 shell pairs
          la=1 lb=0:    240 shell pairs
          la=1 lb=1:     78 shell pairs
          la=2 lb=0:     80 shell pairs
          la=2 lb=1:     48 shell pairs
          la=2 lb=2:     10 shell pairs

Calculating one electron integrals          ... done (  0.0 sec)
Calculating Nuclear repulsion               ... done (  0.0 sec) ENN=    118.823312640538 Eh

SHARK setup successfully completed in   0.2 seconds

Maximum memory used throughout the entire GTOINT-calculation: 7.3 MB
-------------------------------------------------------------------------------
                                 ORCA SCF
-------------------------------------------------------------------------------

------------
SCF SETTINGS
------------
Hamiltonian:
 Ab initio Hamiltonian  Method          .... Hartree-Fock(GTOs)


General Settings:
 Integral files         IntName         .... input
 Hartree-Fock type      HFTyp           .... RHF
 Total Charge           Charge          ....    0
 Multiplicity           Mult            ....    1
 Number of Electrons    NEL             ....   32
 Basis Dimension        Dim             ....   76
 Nuclear Repulsion      ENuc            ....    118.8233126405 Eh

Convergence Acceleration:
 DIIS                   CNVDIIS         .... on
   Start iteration      DIISMaxIt       ....    12
   Startup error        DIISStart       ....  0.200000
   # of expansion vecs  DIISMaxEq       ....     5
   Bias factor          DIISBfac        ....   1.050
   Max. coefficient     DIISMaxC        ....  10.000
 Trust-Rad. Augm. Hess. CNVTRAH         .... auto
   Auto Start mean grad. ratio tolernc. ....  1.125000
   Auto Start start iteration           ....    20
   Auto Start num. interpolation iter.  ....    10
   Max. Number of Micro iterations      ....    16
   Max. Number of Macro iterations      .... Maxiter - #DIIS iter
   Number of Davidson start vectors     ....     2
   Converg. threshold I  (grad. norm)   ....   1.000e-05
   Converg. threshold II (energy diff.) ....   1.000e-08
   Grad. Scal. Fac. for Micro threshold ....   0.100
   Minimum threshold for Micro iter.    ....   0.010
   NR start threshold (gradient norm)   ....   0.001
   Initial trust radius                 ....   0.400
   Minimum AH scaling param. (alpha)    ....   1.000
   Maximum AH scaling param. (alpha)    .... 1000.000
   Orbital update algorithm             .... Taylor
   White noise on init. David. guess    .... on
   Maximum white noise                  ....   0.010
   Quad. conv. algorithm                .... NR
 SOSCF                  CNVSOSCF        .... on
   Start iteration      SOSCFMaxIt      ....   150
   Startup grad/error   SOSCFStart      ....  0.003300
 Level Shifting         CNVShift        .... on
   Level shift para.    LevelShift      ....    0.2500
   Turn off err/grad.   ShiftErr        ....    0.0010
 Zerner damping         CNVZerner       .... off
 Static damping         CNVDamp         .... on
   Fraction old density DampFac         ....    0.7000
   Max. Damping (<1)    DampMax         ....    0.9800
   Min. Damping (>=0)   DampMin         ....    0.0000
   Turn off err/grad.   DampErr         ....    0.1000
 Fernandez-Rico         CNVRico         .... off

SCF Procedure:
 Maximum # iterations   MaxIter         ....   125
 SCF integral mode      SCFMode         .... Direct
   Integral package                     .... SHARK and LIBINT hybrid scheme
 Reset frequency        DirectResetFreq ....    20
 Integral Threshold     Thresh          ....  2.500e-11 Eh
 Primitive CutOff       TCut            ....  2.500e-12 Eh

Convergence Tolerance:
 Convergence Check Mode ConvCheckMode   .... Total+1el-Energy
 Convergence forced     ConvForced      .... 0
 Energy Change          TolE            ....  1.000e-08 Eh
 1-El. energy change                    ....  1.000e-05 Eh
 Orbital Gradient       TolG            ....  1.000e-05
 Orbital Rotation angle TolX            ....  1.000e-05
 DIIS Error             TolErr          ....  5.000e-07


Diagonalization of the overlap matrix:
Smallest eigenvalue                        ... 3.317e-03
Time for diagonalization                   ...    0.002 sec
Threshold for overlap eigenvalues          ... 1.000e-08
Number of eigenvalues below threshold      ... 0
Time for construction of square roots      ...    0.012 sec
Total time needed                          ...    0.014 sec

Time for model grid setup =    0.085 sec

------------------------------
INITIAL GUESS: MODEL POTENTIAL
------------------------------
Loading Hartree-Fock densities                     ... done
Calculating cut-offs                               ... done
Initializing the effective Hamiltonian             ... done
Setting up the integral package (SHARK)            ... done
Starting the Coulomb interaction                   ... done (   0.1 sec)
Reading the grid                                   ... done
Mapping shells                                     ... done
Starting the XC term evaluation                    ... done (   0.0 sec)
Transforming the Hamiltonian                       ... done (   0.0 sec)
Diagonalizing the Hamiltonian                      ... done (   0.0 sec)
Back transforming the eigenvectors                 ... done (   0.0 sec)
Now organizing SCF variables                       ... done
                      ------------------
                      INITIAL GUESS DONE (   0.2 sec)
                      ------------------

--------------------
CPCM SOLVATION MODEL
--------------------
CPCM parameters:
  Epsilon                                         ...      80.4000
  Refrac                                          ...       1.3300
  Rsolv                                           ...       1.3000
  Surface type                                    ... GAUSSIAN VDW
  Epsilon function type                           ...         CPCM
Radii:
 Radius for O  used is    3.4469 Bohr (=   1.8240 Ang.)
 Radius for C  used is    3.8550 Bohr (=   2.0400 Ang.)
 Radius for H  used is    2.4944 Bohr (=   1.3200 Ang.)
Calculating surface                               ...        done! (  0.0s)
GEPOL surface points                              ...          534
GEPOL Volume                                      ...     535.0649
GEPOL Surface-area                                ...     355.6026
Calculating surface distance matrix               ...        done! (  0.0s)
Performing Cholesky decomposition & store         ...        done! (  0.1s)
Overall time for CPCM initialization              ...                 0.1s
--------------
SCF ITERATIONS
--------------
ITER       Energy         Delta-E        Max-DP      RMS-DP      [F,P]     Damp
               ***  Starting incremental Fock matrix formation  ***
  0   -227.4468956420   0.000000000000 0.06688066  0.00302803  0.2762432 0.7000
  1   -227.5117918661  -0.064896224033 0.04793883  0.00215236  0.1681150 0.7000
                               ***Turning on DIIS***
  2   -227.5489803394  -0.037188473351 0.09444565  0.00437538  0.0946049 0.0000
  3   -227.3402993372   0.208681002266 0.03526544  0.00163956  0.0571385 0.0000
  4   -227.6291445874  -0.288845250262 0.00974923  0.00048898  0.0079756 0.0000
  5   -227.6202984907   0.008846096736 0.00470466  0.00024418  0.0049798 0.0000
                      *** Initiating the SOSCF procedure ***
                           *** Shutting down DIIS ***
                      *** Re-Reading the Fockian *** 
                      *** Removing any level shift *** 
ITER      Energy       Delta-E        Grad      Rot      Max-DP    RMS-DP
  6   -227.62327371  -0.0029752220  0.001920  0.001920  0.002522  0.000137
               *** Restarting incremental Fock matrix formation ***
  7   -227.62492517  -0.0016514585  0.000615  0.000997  0.000943  0.000055
  8   -227.62493054  -0.0000053646  0.000430  0.001539  0.001180  0.000060
  9   -227.62493251  -0.0000019719  0.000115  0.000138  0.000217  0.000010
 10   -227.62493271  -0.0000002028  0.000052  0.000067  0.000062  0.000003
 11   -227.62493273  -0.0000000228  0.000014  0.000031  0.000047  0.000002
 12   -227.62493274  -0.0000000041  0.000004  0.000012  0.000015  0.000001
                  ***Gradient check signals convergence***
              ***Rediagonalizing the Fockian in SOSCF/NRSCF***

               *****************************************************
               *                     SUCCESS                       *
               *           SCF CONVERGED AFTER  13 CYCLES          *
               *****************************************************


----------------
TOTAL SCF ENERGY
----------------

Total Energy       :         -227.62493274 Eh           -6193.98932 eV

Components:
Nuclear Repulsion  :          118.82331264 Eh            3233.34672 eV
Electronic Energy  :         -346.44824538 Eh           -9427.33603 eV
One Electron Energy:         -547.10759334 Eh          -14887.55448 eV
Two Electron Energy:          200.65934796 Eh            5460.21845 eV
CPCM Dielectric    :           -0.01729062 Eh              -0.47050 eV

Virial components:
Potential Energy   :         -454.02038749 Eh          -12354.52284 eV
Kinetic Energy     :          226.39545475 Eh            6160.53352 eV
Virial Ratio       :            2.00543067

CPCM Solvation Model Properties:
Surface-charge          :           -0.00776354
Charge-correction       :           -0.00002956 Eh              -0.00080 eV
Free-energy (cav+disp)  :  This term is not implemented in the current solvation scheme

---------------
SCF CONVERGENCE
---------------

  Last Energy change         ...   -9.7657e-11  Tolerance :   1.0000e-08
  Last MAX-Density change    ...    2.9618e-06  Tolerance :   1.0000e-07
  Last RMS-Density change    ...    1.4193e-07  Tolerance :   5.0000e-09
  Last Orbital Gradient      ...    1.7381e-06  Tolerance :   1.0000e-05
  Last Orbital Rotation      ...    1.4462e-06  Tolerance :   1.0000e-05

             **** THE GBW FILE WAS UPDATED (input.gbw) ****
             **** DENSITY input.scfp WAS UPDATED ****
             **** ENERGY FILE WAS UPDATED (input.en.tmp) ****
             **** THE GBW FILE WAS UPDATED (input.gbw) ****
             **** DENSITY input.scfp WAS UPDATED ****
----------------
ORBITAL ENERGIES
----------------

  NO   OCC          E(Eh)            E(eV) 
   0   2.0000     -20.602432      -560.6207 
   1   2.0000     -20.534858      -558.7819 
   2   2.0000     -11.403434      -310.3032 
   3   2.0000     -11.251244      -306.1619 
   4   2.0000      -1.416078       -38.5334 
   5   2.0000      -1.312046       -35.7026 
   6   2.0000      -1.009141       -27.4601 
   7   2.0000      -0.817416       -22.2430 
   8   2.0000      -0.690120       -18.7791 
   9   2.0000      -0.665820       -18.1179 
  10   2.0000      -0.633570       -17.2403 
  11   2.0000      -0.575471       -15.6594 
  12   2.0000      -0.555713       -15.1217 
  13   2.0000      -0.541495       -14.7348 
  14   2.0000      -0.464828       -12.6486 
  15   2.0000      -0.450189       -12.2503 
  16   0.0000       0.152814         4.1583 
  17   0.0000       0.183538         4.9943 
  18   0.0000       0.215293         5.8584 
  19   0.0000       0.259612         7.0644 
  20   0.0000       0.281449         7.6586 
  21   0.0000       0.388187        10.5631 
  22   0.0000       0.414823        11.2879 
  23   0.0000       0.462055        12.5732 
  24   0.0000       0.635770        17.3002 
  25   0.0000       0.658898        17.9295 
  26   0.0000       0.714623        19.4459 
  27   0.0000       0.719247        19.5717 
  28   0.0000       0.733187        19.9510 
  29   0.0000       0.836826        22.7712 
  30   0.0000       0.846641        23.0383 
  31   0.0000       0.865431        23.5496 
  32   0.0000       0.880767        23.9669 
  33   0.0000       0.885509        24.0959 
  34   0.0000       0.919875        25.0311 
  35   0.0000       1.052407        28.6374 
  36   0.0000       1.159616        31.5547 
  37   0.0000       1.221360        33.2349 
  38   0.0000       1.239628        33.7320 
  39   0.0000       1.330318        36.1998 
  40   0.0000       1.395532        37.9744 
  41   0.0000       1.429116        38.8882 
  42   0.0000       1.474567        40.1250 
  43   0.0000       1.533129        41.7186 
  44   0.0000       1.646915        44.8148 
  45   0.0000       1.715809        46.6895 
  46   0.0000       1.762715        47.9659 
  47   0.0000       1.789932        48.7065 
  48   0.0000       1.844497        50.1913 
  49   0.0000       1.921431        52.2848 
  50   0.0000       1.963851        53.4391 
  51   0.0000       2.032353        55.3031 
  52   0.0000       2.048219        55.7349 
  53   0.0000       2.085706        56.7550 
  54   0.0000       2.147264        58.4300 
  55   0.0000       2.252797        61.3017 
  56   0.0000       2.324076        63.2413 
  57   0.0000       2.361228        64.2523 
  58   0.0000       2.438344        66.3507 
  59   0.0000       2.566558        69.8396 
  60   0.0000       2.678323        72.8809 
  61   0.0000       2.758942        75.0746 
  62   0.0000       2.839584        77.2690 
  63   0.0000       3.003630        81.7329 
  64   0.0000       3.018437        82.1359 
  65   0.0000       3.082738        83.8856 
  66   0.0000       3.158158        85.9379 
  67   0.0000       3.214418        87.4688 
  68   0.0000       3.220335        87.6298 
  69   0.0000       3.324828        90.4732 
  70   0.0000       3.375357        91.8481 
  71   0.0000       3.506235        95.4095 
  72   0.0000       3.580964        97.4430 
  73   0.0000       3.914565       106.5207 
  74   0.0000       3.937723       107.1509 
  75   0.0000       4.095216       111.4365 

                    ********************************
                    * MULLIKEN POPULATION ANALYSIS *
                    ********************************

-----------------------
MULLIKEN ATOMIC CHARGES
-----------------------
   0 O :   -0.444154
   1 O :   -0.529925
   2 C :   -0.084391
   3 C :    0.460802
   4 H :    0.303912
   5 H :    0.077244
   6 H :    0.115328
   7 H :    0.101186
Sum of atomic charges:    0.0000000

--------------------------------
MULLIKEN REDUCED ORBITAL CHARGES
--------------------------------
  0 O s       :     3.730538  s :     3.730538
      pz      :     1.820672  p :     4.701935
      px      :     1.220515
      py      :     1.660747
      dz2     :     0.001673  d :     0.011682
      dxz     :     0.000907
      dyz     :     0.001815
      dx2y2   :     0.001610
      dxy     :     0.005677
  1 O s       :     3.805660  s :     3.805660
      pz      :     1.512928  p :     4.706845
      px      :     1.822955
      py      :     1.370962
      dz2     :     0.002022  d :     0.017421
      dxz     :     0.000416
      dyz     :     0.005141
      dx2y2   :     0.005940
      dxy     :     0.003902
  2 C s       :     3.074542  s :     3.074542
      pz      :     1.072865  p :     2.976530
      px      :     0.869110
      py      :     1.034555
      dz2     :     0.007557  d :     0.033320
      dxz     :     0.003429
      dyz     :     0.005852
      dx2y2   :     0.012507
      dxy     :     0.003975
  3 C s       :     3.074441  s :     3.074441
      pz      :     0.631776  p :     2.323954
      px      :     0.921632
      py      :     0.770545
      dz2     :     0.008913  d :     0.140804
      dxz     :     0.011712
      dyz     :     0.028162
      dx2y2   :     0.039414
      dxy     :     0.052603
  4 H s       :     0.633017  s :     0.633017
      pz      :     0.012643  p :     0.063071
      px      :     0.040609
      py      :     0.009819
  5 H s       :     0.896739  s :     0.896739
      pz      :     0.004329  p :     0.026017
      px      :     0.003967
      py      :     0.017721
  6 H s       :     0.858183  s :     0.858183
      pz      :     0.016422  p :     0.026488
      px      :     0.004936
      py      :     0.005131
  7 H s       :     0.872958  s :     0.872958
      pz      :     0.009977  p :     0.025856
      px      :     0.006950
      py      :     0.008929


                     *******************************
                     * LOEWDIN POPULATION ANALYSIS *
                     *******************************

----------------------
LOEWDIN ATOMIC CHARGES
----------------------
   0 O :   -0.168606
   1 O :   -0.382852
   2 C :   -0.053470
   3 C :    0.258888
   4 H :    0.172941
   5 H :    0.038759
   6 H :    0.069286
   7 H :    0.065054

-------------------------------
LOEWDIN REDUCED ORBITAL CHARGES
-------------------------------
  0 O s       :     3.440604  s :     3.440604
      pz      :     1.774502  p :     4.707180
      px      :     1.265011
      py      :     1.667667
      dz2     :     0.002761  d :     0.020821
      dxz     :     0.001726
      dyz     :     0.001852
      dx2y2   :     0.004408
      dxy     :     0.010074
  1 O s       :     3.578966  s :     3.578966
      pz      :     1.495647  p :     4.777055
      px      :     1.805646
      py      :     1.475762
      dz2     :     0.003928  d :     0.026831
      dxz     :     0.000407
      dyz     :     0.005296
      dx2y2   :     0.010598
      dxy     :     0.006602
  2 C s       :     2.845070  s :     2.845070
      pz      :     1.076500  p :     3.131171
      px      :     0.985091
      py      :     1.069579
      dz2     :     0.017181  d :     0.077229
      dxz     :     0.008951
      dyz     :     0.011852
      dx2y2   :     0.028298
      dxy     :     0.010948
  3 C s       :     2.868426  s :     2.868426
      pz      :     0.652424  p :     2.596119
      px      :     0.990460
      py      :     0.953235
      dz2     :     0.017346  d :     0.276567
      dxz     :     0.020547
      dyz     :     0.049696
      dx2y2   :     0.081712
      dxy     :     0.107265
  4 H s       :     0.666059  s :     0.666059
      pz      :     0.038368  p :     0.161000
      px      :     0.090399
      py      :     0.032233
  5 H s       :     0.892344  s :     0.892344
      pz      :     0.014053  p :     0.068897
      px      :     0.012943
      py      :     0.041902
  6 H s       :     0.865093  s :     0.865093
      pz      :     0.038348  p :     0.065621
      px      :     0.013248
      py      :     0.014026
  7 H s       :     0.871289  s :     0.871289
      pz      :     0.024074  p :     0.063657
      px      :     0.017437
      py      :     0.022146


                      *****************************
                      * MAYER POPULATION ANALYSIS *
                      *****************************

  NA   - Mulliken gross atomic population
  ZA   - Total nuclear charge
  QA   - Mulliken gross atomic charge
  VA   - Mayer's total valence
  BVA  - Mayer's bonded valence
  FA   - Mayer's free valence

  ATOM       NA         ZA         QA         VA         BVA        FA
  0 O      8.4442     8.0000    -0.4442     2.0024     2.0024    -0.0000
  1 O      8.5299     8.0000    -0.5299     1.8972     1.8972     0.0000
  2 C      6.0844     6.0000    -0.0844     3.8604     3.8604     0.0000
  3 C      5.5392     6.0000     0.4608     4.0233     4.0233     0.0000
  4 H      0.6961     1.0000     0.3039     0.9337     0.9337    -0.0000
  5 H      0.9228     1.0000     0.0772     0.9834     0.9834     0.0000
  6 H      0.8847     1.0000     0.1153     0.9863     0.9863    -0.0000
  7 H      0.8988     1.0000     0.1012     0.9910     0.9910     0.0000

  Mayer bond orders larger than 0.100000
B(  0-O ,  3-C ) :   1.1091 B(  0-O ,  4-H ) :   0.8835 B(  1-O ,  3-C ) :   1.8643 
B(  2-C ,  3-C ) :   0.9948 B(  2-C ,  5-H ) :   0.9707 B(  2-C ,  6-H ) :   0.9615 
B(  2-C ,  7-H ) :   0.9694 

-------
TIMINGS
-------

Total SCF time: 0 days 0 hours 0 min 5 sec 

Total time                  ....       5.146 sec
Sum of individual times     ....       4.343 sec  ( 84.4%)

Fock matrix formation       ....       4.117 sec  ( 80.0%)
Diagonalization             ....       0.013 sec  (  0.2%)
Density matrix formation    ....       0.001 sec  (  0.0%)
Population analysis         ....       0.016 sec  (  0.3%)
Initial guess               ....       0.090 sec  (  1.7%)
Orbital Transformation      ....       0.000 sec  (  0.0%)
Orbital Orthonormalization  ....       0.000 sec  (  0.0%)
DIIS solution               ....       0.012 sec  (  0.2%)
SOSCF solution              ....       0.010 sec  (  0.2%)

Maximum memory used throughout the entire SCF-calculation: 229.1 MB

-------------------------   --------------------
FINAL SINGLE POINT ENERGY      -227.624932737576
-------------------------   --------------------

------------------------------------------------------------------------------
                         ORCA SCF GRADIENT CALCULATION
------------------------------------------------------------------------------

Gradient of the Hartree-Fock SCF energy:
Hartree-Fock type                ... RHF
Number of operators              ...    1
Number of atoms                  ...    8
Basis set dimensions             ...   76
Integral neglect threshold       ... 2.5e-11
Integral primitive cutoff        ... 2.5e-12
SHARK Integral package           ... ON

Nuc. rep. gradient       (SHARK) ... done (  0.0 sec)
HCore & Overlap gradient (SHARK) ... done (  0.0 sec)
Two-Electron gradient    (SHARK) ... done (  0.9 sec)

------------------
CARTESIAN GRADIENT
------------------

   1   O   :    0.011944387   -0.016199577    0.018854942
   2   O   :    0.021714575    0.093079883    0.000958814
   3   C   :    0.022376282    0.001478884   -0.012401895
   4   C   :   -0.095763611   -0.098991485   -0.001509294
   5   H   :    0.062004290   -0.003477780   -0.012232524
   6   H   :   -0.000723070    0.000177308    0.006588709
   7   H   :   -0.008936545    0.010545961   -0.013930434
   8   H   :   -0.012616309    0.013386805    0.013671682

Difference to translation invariance:
           :    0.0000000000   -0.0000000000    0.0000000000

Difference to rotation invariance:
           :   -0.0000419700   -0.0000096669    0.0002453824

Norm of the cartesian gradient     ...    0.1857054638
RMS gradient                       ...    0.0379069691
MAX gradient                       ...    0.0989914848

-------
TIMINGS
-------

Total SCF gradient time            ...        1.082 sec

One electron gradient       ....       0.021 sec  (  2.0%)
Two electron gradient       ....       0.872 sec  ( 80.6%)
CPCM gradient               ....       0.082 sec  (  7.6%)
   A-Matrix (El+Nuc)        ....       0.013 sec  (  1.2%)
   Potential                ....       0.069 sec  (  6.4%)

Maximum memory used throughout the entire SCFGRAD-calculation: 16.9 MB
------------------------------------------------------------------------------
                         ORCA GEOMETRY RELAXATION STEP
------------------------------------------------------------------------------

Reading the OPT-File                    .... done
Getting information on internals        .... done
Copying old internal coords+grads       .... done
Making the new internal coordinates     .... (new redundants).... done
Validating the new internal coordinates .... (new redundants).... done
Calculating the B-matrix                .... done
Calculating the G,G- and P matrices     .... done
Transforming gradient to internals      .... done
Projecting the internal gradient        .... done
Number of atoms                         ....   8
Number of internal coordinates          ....  25
Current Energy                          ....  -227.624932738 Eh
Current gradient norm                   ....     0.185705464 Eh/bohr
Maximum allowed component of the step   ....  0.300
Current trust radius                    ....  0.300
Evaluating the initial hessian          ....  (Almloef) done
Projecting the Hessian                  .... done
Forming the augmented Hessian           .... done
Diagonalizing the augmented Hessian     .... done
Last element of RFO vector              ....  0.961943827
Lowest eigenvalues of augmented Hessian:
 -0.037966792  0.014646496  0.017458865  0.026298595  0.126101263
Length of the computed step             ....  0.284057414
The final length of the internal step   ....  0.284057414
Converting the step to cartesian space:
 Initial RMS(Int)=    0.0568114828
Transforming coordinates:
 Iter   0:  RMS(Cart)=    0.0822726877 RMS(Int)=    0.0566358063
 Iter   1:  RMS(Cart)=    0.0020950079 RMS(Int)=    0.0023064214
 Iter   2:  RMS(Cart)=    0.0001806685 RMS(Int)=    0.0001854592
 Iter   3:  RMS(Cart)=    0.0000085832 RMS(Int)=    0.0000122854
 Iter   4:  RMS(Cart)=    0.0000010032 RMS(Int)=    0.0000010062
 Iter   5:  RMS(Cart)=    0.0000000570 RMS(Int)=    0.0000000746
done
Storing new coordinates                 .... done

                                .--------------------.
          ----------------------|Geometry convergence|-------------------------
          Item                value                   Tolerance       Converged
          ---------------------------------------------------------------------
          RMS gradient        0.0300128897            0.0001000000      NO
          MAX gradient        0.0954722357            0.0003000000      NO
          RMS step            0.0568114828            0.0020000000      NO
          MAX step            0.1313267085            0.0040000000      NO
          ........................................................
          Max(Bonds)      0.0695      Max(Angles)    5.60
          Max(Dihed)        4.00      Max(Improp)    0.00
          ---------------------------------------------------------------------

The optimization has not yet converged - more geometry cycles are needed


    ---------------------------------------------------------------------------
                         Redundant Internal Coordinates
                            (Angstroem and degrees)

        Definition                    Value    dE/dq     Step     New-Value
    ----------------------------------------------------------------------------
     1. B(C   3,O   1)                1.2564  0.095472 -0.0531    1.2033   
     2. B(C   3,C   2)                1.4820 -0.004643  0.0051    1.4871   
     3. B(C   3,O   0)                1.3738  0.067180 -0.0563    1.3175   
     4. B(H   4,O   0)                1.0167  0.060438 -0.0695    0.9472   
     5. B(H   5,C   2)                1.0891  0.001371 -0.0018    1.0873   
     6. B(H   6,C   2)                1.1158  0.018417 -0.0267    1.0891   
     7. B(H   7,C   2)                1.1238  0.022851 -0.0340    1.0898   
     8. A(C   3,O   0,H   4)          119.27  0.034671   -5.06    114.21   
     9. A(H   5,C   2,H   7)          107.85 -0.002758    0.94    108.79   
    10. A(C   3,C   2,H   7)          106.53  0.000006    0.36    106.88   
    11. A(C   3,C   2,H   5)          114.19 -0.000874   -0.04    114.15   
    12. A(C   3,C   2,H   6)          109.22  0.004455   -0.95    108.27   
    13. A(H   5,C   2,H   6)          113.10  0.003040   -1.24    111.86   
    14. A(H   6,C   2,H   7)          105.36 -0.004587    1.19    106.55   
    15. A(O   1,C   3,C   2)          117.18 -0.026843    3.40    120.58   
    16. A(O   0,C   3,C   2)          124.58  0.044423   -5.60    118.98   
    17. A(O   0,C   3,O   1)          118.25 -0.017580    2.19    120.44   
    18. D(C   2,C   3,O   0,H   4)    160.46 -0.004366    3.92    164.38   
    19. D(O   0,C   3,C   2,H   5)     12.31  0.003785   -1.40     10.92   
    20. D(O   0,C   3,C   2,H   6)   -115.43 -0.003363    1.10   -114.32   
    21. D(O   0,C   3,C   2,H   7)    131.24 -0.000155   -0.00    131.24   
    22. D(O   1,C   3,C   2,H   5)   -167.69  0.003860   -1.47   -169.16   
    23. D(O   1,C   3,C   2,H   6)     64.57 -0.003287    1.03     65.60   
    24. D(O   1,C   3,C   2,H   7)    -48.76 -0.000079   -0.08    -48.84   
    25. D(O   1,C   3,O   0,H   4)    -19.54 -0.004442    4.00    -15.54   
    ----------------------------------------------------------------------------

         *************************************************************
         *                GEOMETRY OPTIMIZATION CYCLE   2            *
         *************************************************************
---------------------------------
CARTESIAN COORDINATES (ANGSTROEM)
---------------------------------
  O      1.356320   -0.724836    0.202989
  O      0.845770    1.398389    0.056849
  C     -0.959191   -0.086620   -0.074423
  C      0.482038    0.251397    0.067260
  H      2.255007   -0.464762    0.055160
  H     -1.194219   -1.127658    0.133297
  H     -1.283049    0.210954   -1.070766
  H     -1.502666    0.543147    0.629654

----------------------------
CARTESIAN COORDINATES (A.U.)
----------------------------
  NO LB      ZA    FRAG     MASS         X           Y           Z
   0 O     8.0000    0    15.999    2.563074   -1.369741    0.383595
   1 O     8.0000    0    15.999    1.598274    2.642572    0.107428
   2 C     6.0000    0    12.011   -1.812608   -0.163689   -0.140638
   3 C     6.0000    0    12.011    0.910920    0.475071    0.127103
   4 H     1.0000    0     1.008    4.261346   -0.878273    0.104238
   5 H     1.0000    0     1.008   -2.256746   -2.130966    0.251894
   6 H     1.0000    0     1.008   -2.424612    0.398644   -2.023455
   7 H     1.0000    0     1.008   -2.839628    1.026400    1.189874

--------------------------------
INTERNAL COORDINATES (ANGSTROEM)
--------------------------------
 O      0   0   0     0.000000000000     0.00000000     0.00000000
 O      1   0   0     2.188630166179     0.00000000     0.00000000
 C      2   1   0     2.341018771535    64.41913152     0.00000000
 C      2   1   3     1.203329235946    31.26640145     0.04824659
 H      1   2   3     0.947169433527    86.82058981   165.78867202
 H      3   2   1     1.087265133486   139.75830569    15.45893701
 H      3   2   1     1.089098653205    96.15678201   240.48286267
 H      3   2   1     1.089815126150    88.95153244   133.94946037

---------------------------
INTERNAL COORDINATES (A.U.)
---------------------------
 O      0   0   0     0.000000000000     0.00000000     0.00000000
 O      1   0   0     4.135911622517     0.00000000     0.00000000
 C      2   1   0     4.423884352570    64.41913152     0.00000000
 C      2   1   3     2.273962704878    31.26640145     0.04824659
 H      1   2   3     1.789890831788    86.82058981   165.78867202
 H      3   2   1     2.054633337250   139.75830569    15.45893701
 H      3   2   1     2.058098187379    96.15678201   240.48286267
 H      3   2   1     2.059452125029    88.95153244   133.94946037

------------------------------------------------------------------------------
                   ___                                                        
                  /   \      - P O W E R E D   B Y -                         
                 /     \                                                     
                 |  |  |   _    _      __       _____    __    __             
                 |  |  |  | |  | |    /  \     |  _  \  |  |  /  |          
                  \  \/   | |  | |   /    \    | | | |  |  | /  /          
                 / \  \   | |__| |  /  /\  \   | |_| |  |  |/  /          
                |  |  |   |  __  | /  /__\  \  |    /   |      \           
                |  |  |   | |  | | |   __   |  |    \   |  |\   \          
                \     /   | |  | | |  |  |  |  | |\  \  |  | \   \       
                 \___/    |_|  |_| |__|  |__|  |_| \__\ |__|  \__/        
                                                                              
                      - O R C A' S   B I G   F R I E N D -                    
                                      &                                       
                       - I N T E G R A L  F E E D E R -                       
                                                                              
 v1 FN, 2020, v2 2021                                                         
------------------------------------------------------------------------------


Reading SHARK input file input.SHARKINP.tmp ... ok
----------------------
SHARK INTEGRAL PACKAGE
----------------------

Number of atoms                             ...      8
Number of basis functions                   ...     76
Number of shells                            ...     36
Maximum angular momentum                    ...      2
Integral batch strategy                     ... SHARK/LIBINT Hybrid
RI-J (if used) integral strategy            ... SPLIT-RIJ (Revised 2003 algorithm where possible)
Printlevel                                  ...      1
Contraction scheme used                     ... SEGMENTED contraction
Coulomb Range Separation                    ... NOT USED
Exchange Range Separation                   ... NOT USED
Finite Nucleus Model                        ... NOT USED
Auxiliary Coulomb fitting basis             ... NOT available
Auxiliary J/K fitting basis                 ... NOT available
Auxiliary Correlation fitting basis         ... NOT available
Auxiliary 'external' fitting basis          ... NOT available
Integral threshold                          ...     2.500000e-11
Primitive cut-off                           ...     2.500000e-12
Primitive pair pre-selection threshold      ...     2.500000e-12

Calculating pre-screening integrals         ... done (  0.0 sec) Dimension = 36
Organizing shell pair data                  ... done (  0.0 sec)
Shell pair information
Total number of shell pairs                 ...       666
Shell pairs after pre-screening             ...       663
Total number of primitive shell pairs       ...      2410
Primitive shell pairs kept                  ...      1991
          la=0 lb=0:    207 shell pairs
          la=1 lb=0:    240 shell pairs
          la=1 lb=1:     78 shell pairs
          la=2 lb=0:     80 shell pairs
          la=2 lb=1:     48 shell pairs
          la=2 lb=2:     10 shell pairs

Calculating one electron integrals          ... done (  0.0 sec)
Calculating Nuclear repulsion               ... done (  0.0 sec) ENN=    122.404898520756 Eh

SHARK setup successfully completed in   0.1 seconds

Maximum memory used throughout the entire GTOINT-calculation: 7.4 MB

Diagonalization of the overlap matrix:
Smallest eigenvalue                        ... 3.277e-03
Time for diagonalization                   ...    0.001 sec
Threshold for overlap eigenvalues          ... 1.000e-08
Number of eigenvalues below threshold      ... 0
Time for construction of square roots      ...    0.002 sec
Total time needed                          ...    0.003 sec


--------------------
CPCM SOLVATION MODEL
--------------------
CPCM parameters:
  Epsilon                                         ...      80.4000
  Refrac                                          ...       1.3300
  Rsolv                                           ...       1.3000
  Surface type                                    ... GAUSSIAN VDW
  Epsilon function type                           ...         CPCM
Radii:
 Radius for O  used is    3.4469 Bohr (=   1.8240 Ang.)
 Radius for C  used is    3.8550 Bohr (=   2.0400 Ang.)
 Radius for H  used is    2.4944 Bohr (=   1.3200 Ang.)
Calculating surface                               ...        done! (  0.0s)
GEPOL surface points                              ...          530
GEPOL Volume                                      ...     522.8963
GEPOL Surface-area                                ...     347.1571
Calculating surface distance matrix               ...        done! (  0.0s)
Performing Cholesky decomposition & store         ...        done! (  0.1s)
Overall time for CPCM initialization              ...                 0.1s
--------------
SCF ITERATIONS
--------------
ITER       Energy         Delta-E        Max-DP      RMS-DP      [F,P]     Damp
               ***  Starting incremental Fock matrix formation  ***
  0   -227.6404752737   0.000000000000 0.01114919  0.00052792  0.0320648 0.7000
                      *** Initiating the SOSCF procedure ***
                      *** Re-Reading the Fockian *** 
                      *** Removing any level shift *** 
ITER      Energy       Delta-E        Grad      Rot      Max-DP    RMS-DP
  1   -227.64250083  -0.0020255556  0.002607  0.002607  0.032043  0.001470
               *** Restarting incremental Fock matrix formation ***
  2   -227.64809977  -0.0055989422  0.003476  0.003156  0.007298  0.000432
  3   -227.64847233  -0.0003725589  0.001178  0.001186  0.002888  0.000214
  4   -227.64851846  -0.0000461337  0.000434  0.000452  0.000753  0.000043
  5   -227.64852152  -0.0000030595  0.000105  0.000091  0.000293  0.000014
  6   -227.64852184  -0.0000003155  0.000029  0.000050  0.000077  0.000005
  7   -227.64852188  -0.0000000373  0.000011  0.000026  0.000037  0.000002
  8   -227.64852188  -0.0000000033  0.000007  0.000010  0.000011  0.000001
                  ***Gradient check signals convergence***
              ***Rediagonalizing the Fockian in SOSCF/NRSCF***

               *****************************************************
               *                     SUCCESS                       *
               *           SCF CONVERGED AFTER   9 CYCLES          *
               *****************************************************

Total Energy       :         -227.64852188 Eh           -6194.63121 eV
  Last Energy change         ...   -7.6352e-10  Tolerance :   1.0000e-08
  Last MAX-Density change    ...    5.2251e-06  Tolerance :   1.0000e-07
             **** THE GBW FILE WAS UPDATED (input.gbw) ****
             **** DENSITY input.scfp WAS UPDATED ****
             **** ENERGY FILE WAS UPDATED (input.en.tmp) ****
             **** THE GBW FILE WAS UPDATED (input.gbw) ****
             **** DENSITY input.scfp WAS UPDATED ****
Total SCF time: 0 days 0 hours 0 min 3 sec 

Maximum memory used throughout the entire SCF-calculation: 229.0 MB

-------------------------   --------------------
FINAL SINGLE POINT ENERGY      -227.648521880503
-------------------------   --------------------

------------------------------------------------------------------------------
                         ORCA SCF GRADIENT CALCULATION
------------------------------------------------------------------------------

Gradient of the Hartree-Fock SCF energy:
Hartree-Fock type                ... RHF
Number of operators              ...    1
Number of atoms                  ...    8
Basis set dimensions             ...   76
Integral neglect threshold       ... 2.5e-11
Integral primitive cutoff        ... 2.5e-12
SHARK Integral package           ... ON

Nuc. rep. gradient       (SHARK) ... done (  0.0 sec)
HCore & Overlap gradient (SHARK) ... done (  0.0 sec)
Two-Electron gradient    (SHARK) ... done (  0.9 sec)

------------------
CARTESIAN GRADIENT
------------------

   1   O   :    0.022749381    0.018944214    0.005381268
   2   O   :    0.004187670    0.014430919    0.002540080
   3   C   :    0.006485524    0.006394716   -0.009471995
   4   C   :   -0.027421974   -0.034213520   -0.001063005
   5   H   :   -0.003175739   -0.010458891   -0.003257855
   6   H   :   -0.001733487    0.000677268    0.003913369
   7   H   :   -0.001187160    0.003686921    0.001766998
   8   H   :    0.000095786    0.000538373    0.000191141

Difference to translation invariance:
           :   -0.0000000000    0.0000000000    0.0000000000

Difference to rotation invariance:
           :   -0.0000203780    0.0000156773    0.0003728729

Norm of the cartesian gradient     ...    0.0583204450
RMS gradient                       ...    0.0119046110
MAX gradient                       ...    0.0342135197

-------
TIMINGS
-------

Total SCF gradient time            ...        1.100 sec

One electron gradient       ....       0.021 sec  (  1.9%)
Two electron gradient       ....       0.891 sec  ( 81.0%)
CPCM gradient               ....       0.081 sec  (  7.4%)
   A-Matrix (El+Nuc)        ....       0.012 sec  (  1.1%)
   Potential                ....       0.069 sec  (  6.2%)

Maximum memory used throughout the entire SCFGRAD-calculation: 16.9 MB
------------------------------------------------------------------------------
                         ORCA GEOMETRY RELAXATION STEP
------------------------------------------------------------------------------

Reading the OPT-File                    .... done
Getting information on internals        .... done
Copying old internal coords+grads       .... done
Making the new internal coordinates     .... (new redundants).... done
Validating the new internal coordinates .... (new redundants).... done
Calculating the B-matrix                .... done
Calculating the G,G- and P matrices     .... done
Transforming gradient to internals      .... done
Projecting the internal gradient        .... done
Number of atoms                         ....   8
Number of internal coordinates          ....  25
Current Energy                          ....  -227.648521881 Eh
Current gradient norm                   ....     0.058320445 Eh/bohr
Maximum allowed component of the step   ....  0.300
Current trust radius                    ....  0.300
Updating the Hessian (BFGS)             .... done
Forming the augmented Hessian           .... done
Diagonalizing the augmented Hessian     .... done
Last element of RFO vector              ....  0.964755257
Lowest eigenvalues of augmented Hessian:
 -0.006231654  0.014646172  0.017466648  0.027044334  0.124083652
Length of the computed step             ....  0.272762240
The final length of the internal step   ....  0.272762240
Converting the step to cartesian space:
 Initial RMS(Int)=    0.0545524480
Transforming coordinates:
 Iter   0:  RMS(Cart)=    0.0501122703 RMS(Int)=    0.0536268731
 Iter   1:  RMS(Cart)=    0.0037867976 RMS(Int)=    0.0038613007
 Iter   2:  RMS(Cart)=    0.0004683779 RMS(Int)=    0.0005391671
 Iter   3:  RMS(Cart)=    0.0000843862 RMS(Int)=    0.0000920834
 Iter   4:  RMS(Cart)=    0.0000123421 RMS(Int)=    0.0000129955
 Iter   5:  RMS(Cart)=    0.0000019691 RMS(Int)=    0.0000022178
 Iter   6:  RMS(Cart)=    0.0000003090 RMS(Int)=    0.0000003151
 Iter   7:  RMS(Cart)=    0.0000000456 RMS(Int)=    0.0000000522
done
Storing new coordinates                 .... done

                                .--------------------.
          ----------------------|Geometry convergence|-------------------------
          Item                value                   Tolerance       Converged
          ---------------------------------------------------------------------
          Energy change      -0.0235891429            0.0000050000      NO
          RMS gradient        0.0076666103            0.0001000000      NO
          MAX gradient        0.0233978564            0.0003000000      NO
          RMS step            0.0545524480            0.0020000000      NO
          MAX step            0.1753922021            0.0040000000      NO
          ........................................................
          Max(Bonds)      0.0153      Max(Angles)    4.32
          Max(Dihed)       10.05      Max(Improp)    0.00
          ---------------------------------------------------------------------

The optimization has not yet converged - more geometry cycles are needed


    ---------------------------------------------------------------------------
                         Redundant Internal Coordinates
                            (Angstroem and degrees)

        Definition                    Value    dE/dq     Step     New-Value
    ----------------------------------------------------------------------------
     1. B(C   3,O   1)                1.2033  0.014995 -0.0153    1.1881   
     2. B(C   3,C   2)                1.4871 -0.005780  0.0087    1.4958   
     3. B(C   3,O   0)                1.3175  0.006940 -0.0122    1.3054   
     4. B(H   4,O   0)                0.9472 -0.005388  0.0029    0.9501   
     5. B(H   5,C   2)                1.0873  0.000464 -0.0010    1.0863   
     6. B(H   6,C   2)                1.0891 -0.000253 -0.0014    1.0877   
     7. B(H   7,C   2)                1.0898  0.000393 -0.0031    1.0867   
     8. A(C   3,O   0,H   4)          114.21  0.014779   -3.25    110.96   
     9. A(H   5,C   2,H   7)          108.79 -0.001690    0.92    109.71   
    10. A(C   3,C   2,H   7)          106.88 -0.002458    0.95    107.83   
    11. A(C   3,C   2,H   5)          114.14  0.002462   -0.72    113.41   
    12. A(C   3,C   2,H   6)          108.25  0.000934   -0.51    107.75   
    13. A(H   5,C   2,H   6)          111.85  0.001999   -1.34    110.50   
    14. A(H   6,C   2,H   7)          106.55 -0.001748    1.02    107.57   
    15. A(O   1,C   3,C   2)          120.58 -0.011750    2.26    122.84   
    16. A(O   0,C   3,C   2)          118.98  0.023398   -4.32    114.66   
    17. A(O   0,C   3,O   1)          120.44 -0.011647    2.06    122.50   
    18. D(C   2,C   3,O   0,H   4)    164.38 -0.004575    9.21    173.60   
    19. D(O   0,C   3,C   2,H   5)     10.92  0.002341   -0.93     10.00   
    20. D(O   0,C   3,C   2,H   6)   -114.33 -0.002785    1.86   -112.46   
    21. D(O   0,C   3,C   2,H   7)    131.24  0.000018    0.44    131.68   
    22. D(O   1,C   3,C   2,H   5)   -169.16  0.002628   -1.75   -170.91   
    23. D(O   1,C   3,C   2,H   6)     65.59 -0.002498    1.04     66.63   
    24. D(O   1,C   3,C   2,H   7)    -48.84  0.000304   -0.39    -49.23   
    25. D(O   1,C   3,O   0,H   4)    -15.54 -0.004861   10.05     -5.49   
    ----------------------------------------------------------------------------

         *************************************************************
         *                GEOMETRY OPTIMIZATION CYCLE   3            *
         *************************************************************
---------------------------------
CARTESIAN COORDINATES (ANGSTROEM)
---------------------------------
  O      1.304565   -0.738885    0.147003
  O      0.881397    1.403672    0.036710
  C     -0.952359   -0.080787   -0.063062
  C      0.494781    0.280348    0.050296
  H      2.211245   -0.456590    0.117246
  H     -1.149955   -1.132654    0.122960
  H     -1.285813    0.197784   -1.060239
  H     -1.503852    0.527122    0.649106

----------------------------
CARTESIAN COORDINATES (A.U.)
----------------------------
  NO LB      ZA    FRAG     MASS         X           Y           Z
   0 O     8.0000    0    15.999    2.465271   -1.396291    0.277795
   1 O     8.0000    0    15.999    1.665599    2.652555    0.069372
   2 C     6.0000    0    12.011   -1.799697   -0.152666   -0.119169
   3 C     6.0000    0    12.011    0.935001    0.529782    0.095045
   4 H     1.0000    0     1.008    4.178647   -0.862830    0.221562
   5 H     1.0000    0     1.008   -2.173099   -2.140406    0.232361
   6 H     1.0000    0     1.008   -2.429835    0.373758   -2.003562
   7 H     1.0000    0     1.008   -2.841868    0.996117    1.226632

--------------------------------
INTERNAL COORDINATES (ANGSTROEM)
--------------------------------
 O      0   0   0     0.000000000000     0.00000000     0.00000000
 O      1   0   0     2.186729558563     0.00000000     0.00000000
 C      1   2   0     2.360281149242    62.43718135     0.00000000
 C      2   1   3     1.188070506456    30.23056234     0.58807539
 H      1   2   3     0.950075313839    83.79825424   174.25377388
 H      3   1   2     1.086311333527    83.61027756   188.78005495
 H      3   1   2     1.087730268702   116.49587574    79.09772644
 H      3   1   2     1.086683475472   125.65679280   298.48542627

---------------------------
INTERNAL COORDINATES (A.U.)
---------------------------
 O      0   0   0     0.000000000000     0.00000000     0.00000000
 O      1   0   0     4.132319994635     0.00000000     0.00000000
 C      1   2   0     4.460284971124    62.43718135     0.00000000
 C      2   1   3     2.245127884991    30.23056234     0.58807539
 H      1   2   3     1.795382149756    83.79825424   174.25377388
 H      3   1   2     2.052830916540    83.61027756   188.78005495
 H      3   1   2     2.055512315423   116.49587574    79.09772644
 H      3   1   2     2.053534162900   125.65679280   298.48542627

------------------------------------------------------------------------------
                   ___                                                        
                  /   \      - P O W E R E D   B Y -                         
                 /     \                                                     
                 |  |  |   _    _      __       _____    __    __             
                 |  |  |  | |  | |    /  \     |  _  \  |  |  /  |          
                  \  \/   | |  | |   /    \    | | | |  |  | /  /          
                 / \  \   | |__| |  /  /\  \   | |_| |  |  |/  /          
                |  |  |   |  __  | /  /__\  \  |    /   |      \           
                |  |  |   | |  | | |   __   |  |    \   |  |\   \          
                \     /   | |  | | |  |  |  |  | |\  \  |  | \   \       
                 \___/    |_|  |_| |__|  |__|  |_| \__\ |__|  \__/        
                                                                              
                      - O R C A' S   B I G   F R I E N D -                    
                                      &                                       
                       - I N T E G R A L  F E E D E R -                       
                                                                              
 v1 FN, 2020, v2 2021                                                         
------------------------------------------------------------------------------


Reading SHARK input file input.SHARKINP.tmp ... ok
----------------------
SHARK INTEGRAL PACKAGE
----------------------

Number of atoms                             ...      8
Number of basis functions                   ...     76
Number of shells                            ...     36
Maximum angular momentum                    ...      2
Integral batch strategy                     ... SHARK/LIBINT Hybrid
RI-J (if used) integral strategy            ... SPLIT-RIJ (Revised 2003 algorithm where possible)
Printlevel                                  ...      1
Contraction scheme used                     ... SEGMENTED contraction
Coulomb Range Separation                    ... NOT USED
Exchange Range Separation                   ... NOT USED
Finite Nucleus Model                        ... NOT USED
Auxiliary Coulomb fitting basis             ... NOT available
Auxiliary J/K fitting basis                 ... NOT available
Auxiliary Correlation fitting basis         ... NOT available
Auxiliary 'external' fitting basis          ... NOT available
Integral threshold                          ...     2.500000e-11
Primitive cut-off                           ...     2.500000e-12
Primitive pair pre-selection threshold      ...     2.500000e-12

Calculating pre-screening integrals         ... done (  0.0 sec) Dimension = 36
Organizing shell pair data                  ... done (  0.0 sec)
Shell pair information
Total number of shell pairs                 ...       666
Shell pairs after pre-screening             ...       663
Total number of primitive shell pairs       ...      2410
Primitive shell pairs kept                  ...      1992
          la=0 lb=0:    207 shell pairs
          la=1 lb=0:    240 shell pairs
          la=1 lb=1:     78 shell pairs
          la=2 lb=0:     80 shell pairs
          la=2 lb=1:     48 shell pairs
          la=2 lb=2:     10 shell pairs

Calculating one electron integrals          ... done (  0.0 sec)
Calculating Nuclear repulsion               ... done (  0.0 sec) ENN=    123.107308369213 Eh

SHARK setup successfully completed in   0.1 seconds

Maximum memory used throughout the entire GTOINT-calculation: 7.4 MB

Diagonalization of the overlap matrix:
Smallest eigenvalue                        ... 3.381e-03
Time for diagonalization                   ...    0.001 sec
Threshold for overlap eigenvalues          ... 1.000e-08
Number of eigenvalues below threshold      ... 0
Time for construction of square roots      ...    0.002 sec
Total time needed                          ...    0.003 sec


--------------------
CPCM SOLVATION MODEL
--------------------
CPCM parameters:
  Epsilon                                         ...      80.4000
  Refrac                                          ...       1.3300
  Rsolv                                           ...       1.3000
  Surface type                                    ... GAUSSIAN VDW
  Epsilon function type                           ...         CPCM
Radii:
 Radius for O  used is    3.4469 Bohr (=   1.8240 Ang.)
 Radius for C  used is    3.8550 Bohr (=   2.0400 Ang.)
 Radius for H  used is    2.4944 Bohr (=   1.3200 Ang.)
Calculating surface                               ...        done! (  0.0s)
GEPOL surface points                              ...          525
GEPOL Volume                                      ...     521.2071
GEPOL Surface-area                                ...     345.5667
Calculating surface distance matrix               ...        done! (  0.0s)
Performing Cholesky decomposition & store         ...        done! (  0.1s)
Overall time for CPCM initialization              ...                 0.1s
--------------
SCF ITERATIONS
--------------
ITER       Energy         Delta-E        Max-DP      RMS-DP      [F,P]     Damp
               ***  Starting incremental Fock matrix formation  ***
  0   -227.6473148042   0.000000000000 0.01187171  0.00036190  0.0395543 0.7000
                      *** Initiating the SOSCF procedure ***
                      *** Re-Reading the Fockian *** 
                      *** Removing any level shift *** 
ITER      Energy       Delta-E        Grad      Rot      Max-DP    RMS-DP
  1   -227.64845063  -0.0011358210  0.001599  0.001599  0.034690  0.001042
               *** Restarting incremental Fock matrix formation ***
  2   -227.65188213  -0.0034315049  0.002020  0.002169  0.009322  0.000314
  3   -227.65215411  -0.0002719834  0.000774  0.001864  0.004500  0.000184
  4   -227.65219023  -0.0000361171  0.000505  0.000444  0.000974  0.000046
  5   -227.65219400  -0.0000037730  0.000143  0.000197  0.000274  0.000014
  6   -227.65219463  -0.0000006247  0.000094  0.000254  0.000206  0.000009
  7   -227.65219476  -0.0000001359  0.000031  0.000103  0.000084  0.000004
  8   -227.65219478  -0.0000000156  0.000007  0.000023  0.000026  0.000001
                 **** Energy Check signals convergence ****
              ***Rediagonalizing the Fockian in SOSCF/NRSCF***

               *****************************************************
               *                     SUCCESS                       *
               *           SCF CONVERGED AFTER   9 CYCLES          *
               *****************************************************

Total Energy       :         -227.65219478 Eh           -6194.73115 eV
  Last Energy change         ...   -2.0113e-09  Tolerance :   1.0000e-08
  Last MAX-Density change    ...    1.1975e-05  Tolerance :   1.0000e-07
             **** THE GBW FILE WAS UPDATED (input.gbw) ****
             **** DENSITY input.scfp WAS UPDATED ****
             **** ENERGY FILE WAS UPDATED (input.en.tmp) ****
             **** THE GBW FILE WAS UPDATED (input.gbw) ****
             **** DENSITY input.scfp WAS UPDATED ****
Total SCF time: 0 days 0 hours 0 min 3 sec 

Maximum memory used throughout the entire SCF-calculation: 229.0 MB

-------------------------   --------------------
FINAL SINGLE POINT ENERGY      -227.652194781832
-------------------------   --------------------

------------------------------------------------------------------------------
                         ORCA SCF GRADIENT CALCULATION
------------------------------------------------------------------------------

Gradient of the Hartree-Fock SCF energy:
Hartree-Fock type                ... RHF
Number of operators              ...    1
Number of atoms                  ...    8
Basis set dimensions             ...   76
Integral neglect threshold       ... 2.5e-11
Integral primitive cutoff        ... 2.5e-12
SHARK Integral package           ... ON

Nuc. rep. gradient       (SHARK) ... done (  0.0 sec)
HCore & Overlap gradient (SHARK) ... done (  0.0 sec)
Two-Electron gradient    (SHARK) ... done (  0.9 sec)

------------------
CARTESIAN GRADIENT
------------------

   1   O   :   -0.001418831    0.012655786    0.001878921
   2   O   :   -0.004497054   -0.008297817    0.000508690
   3   C   :    0.002014876    0.000402681   -0.003933802
   4   C   :    0.006056676   -0.002920577    0.000898053
   5   H   :   -0.003108890   -0.002584781   -0.002044538
   6   H   :   -0.001669372    0.000350477    0.001346148
   7   H   :    0.000883837    0.001179040    0.002116856
   8   H   :    0.001738759   -0.000784809   -0.000770328

Difference to translation invariance:
           :    0.0000000000    0.0000000000   -0.0000000000

Difference to rotation invariance:
           :   -0.0000895172   -0.0000607871    0.0004551480

Norm of the cartesian gradient     ...    0.0188917396
RMS gradient                       ...    0.0038562602
MAX gradient                       ...    0.0126557863

-------
TIMINGS
-------

Total SCF gradient time            ...        1.146 sec

One electron gradient       ....       0.022 sec  (  1.9%)
Two electron gradient       ....       0.900 sec  ( 78.5%)
CPCM gradient               ....       0.082 sec  (  7.2%)
   A-Matrix (El+Nuc)        ....       0.013 sec  (  1.1%)
   Potential                ....       0.069 sec  (  6.1%)

Maximum memory used throughout the entire SCFGRAD-calculation: 16.9 MB
------------------------------------------------------------------------------
                         ORCA GEOMETRY RELAXATION STEP
------------------------------------------------------------------------------

Reading the OPT-File                    .... done
Getting information on internals        .... done
Copying old internal coords+grads       .... done
Making the new internal coordinates     .... (new redundants).... done
Validating the new internal coordinates .... (new redundants).... done
Calculating the B-matrix                .... done
Calculating the G,G- and P matrices     .... done
Transforming gradient to internals      .... done
Projecting the internal gradient        .... done
Number of atoms                         ....   8
Number of internal coordinates          ....  25
Current Energy                          ....  -227.652194782 Eh
Current gradient norm                   ....     0.018891740 Eh/bohr
Maximum allowed component of the step   ....  0.300
Current trust radius                    ....  0.300
Updating the Hessian (BFGS)             .... done
Forming the augmented Hessian           .... done
Diagonalizing the augmented Hessian     .... done
Last element of RFO vector              ....  0.989598845
Lowest eigenvalues of augmented Hessian:
 -0.000973788  0.014645292  0.017523958  0.023321437  0.117561363
Length of the computed step             ....  0.145366513
The final length of the internal step   ....  0.145366513
Converting the step to cartesian space:
 Initial RMS(Int)=    0.0290733027
Transforming coordinates:
 Iter   0:  RMS(Cart)=    0.0273155106 RMS(Int)=    0.0289096981
 Iter   1:  RMS(Cart)=    0.0013104040 RMS(Int)=    0.0013084065
 Iter   2:  RMS(Cart)=    0.0000928035 RMS(Int)=    0.0001043889
 Iter   3:  RMS(Cart)=    0.0000094195 RMS(Int)=    0.0000099321
 Iter   4:  RMS(Cart)=    0.0000007507 RMS(Int)=    0.0000008260
 Iter   5:  RMS(Cart)=    0.0000000731 RMS(Int)=    0.0000000781
done
Storing new coordinates                 .... done

                                .--------------------.
          ----------------------|Geometry convergence|-------------------------
          Item                value                   Tolerance       Converged
[...]
Forming right-hand sides of CP-SCF equations     ...
----------------------------------------------
One electron integral derivatives  (SHARK)       ... done   (      0.0 sec)
C-PCM contribution to the Fock matrix derivative ... done   (      1.1 sec)
Transforming the overlap derivative matrices     ... done   (      0.3 sec)
Adding tr(S(x)F(y) C-PCM term to the hessian     ... done   (      0.0 sec)
Making the Q(x) pseudodensities                  ... done   (      0.0 sec)
Adding the E*S(x)*S(y) terms to the Hessian      ... done   (      0.0 sec)
Calculating energy weighted overlap derivatives  ... done   (      0.0 sec)
Two electron integral derivatives (SHARK)        ... done   (      1.3 sec)
tr(F(y)Q(x)) contribution to the Hessian         ... done   (      0.0 sec)
Response fock operator R(S(x)) (SHARK)           ... done   (      1.0 sec)
tr(F(y)S(x)) contribution to the Hessian         ... done   (      0.0 sec)
Transforming and finalizing RHSs                 ... done   (      0.0 sec)

----------------------------------------------
Solving the CP-SCF equations                     ...
----------------------------------------------
     CP-SCF ITERATION   0:   1.3818e-01 (   1.2 sec   0/ 24 done)
     CP-SCF ITERATION   1:   2.8689e-02 (   1.2 sec   0/ 24 done)
     CP-SCF ITERATION   2:   1.1984e-02 (   1.2 sec   0/ 24 done)
     CP-SCF ITERATION   3:   3.9968e-03 (   1.2 sec   0/ 24 done)
     CP-SCF ITERATION   4:   1.2826e-03 (   1.2 sec   1/ 24 done)
     CP-SCF ITERATION   5:   4.0963e-04 (   1.2 sec  12/ 24 done)
     CP-SCF ITERATION   6:   1.2649e-04 (   0.7 sec  20/ 24 done)
     CP-SCF ITERATION   7:   4.7150e-05 (   0.4 sec  24/ 24 done)
                    *** THE CP-SCF HAS CONVERGED ***

                                                 ... done   (      8.2 sec)
Forming perturbed density Hessian contributions  ... done   (      0.0 sec)
Calculating [Q*(d^2 A/dXdY)*Q  ] C-PCM term      ... done   (      0.0 sec)
Calculating [d^2(V_N)/(dXdY)*Q ] C-PCM term      ... done   (      0.0 sec)
Calculating [d^2(V_el)/(dXdY)*Q] C-PCM term      ... done   (      0.2 sec)
Calculating C-PCM term that depends on dQ/dX     ... done   (      0.0 sec)
2nd integral derivative contribs (SHARK)         ... done   (      6.9 sec)
Dipole derivatives                               ... (center of mass:  0.867879,  0.377851  0.201325)done   (      0.1 sec)

Total SCF Hessian time: 0 days 0 hours 0 min 20 sec 

Writing the Hessian file to the disk             ... done


Maximum memory used throughout the entire SCFHESS-calculation: 62.2 MB

-----------------------
VIBRATIONAL FREQUENCIES
-----------------------

Scaling factor for frequencies =  1.000000000  (already applied!)

   0:         0.00 cm**-1
   1:         0.00 cm**-1
   2:         0.00 cm**-1
   3:         0.00 cm**-1
   4:         0.00 cm**-1
   5:         0.00 cm**-1
   6:        89.18 cm**-1
   7:       465.25 cm**-1
   8:       574.14 cm**-1
   9:       645.59 cm**-1
  10:       693.87 cm**-1
  11:       949.17 cm**-1
  12:      1098.59 cm**-1
  13:      1158.14 cm**-1
  14:      1330.55 cm**-1
  15:      1449.77 cm**-1
  16:      1544.23 cm**-1
  17:      1548.67 cm**-1
  18:      1557.97 cm**-1
  19:      1984.10 cm**-1
  20:      3203.44 cm**-1
  21:      3292.55 cm**-1
  22:      3334.30 cm**-1
  23:      4067.44 cm**-1


------------
NORMAL MODES
------------

These modes are the Cartesian displacements weighted by the diagonal matrix
M(i,i)=1/sqrt(m[i]) where m[i] is the mass of the displaced atom
Thus, these vectors are normalized but *not* orthogonal

                  0          1          2          3          4          5    
      0       0.000000   0.000000   0.000000   0.000000   0.000000   0.000000
      1       0.000000   0.000000   0.000000   0.000000   0.000000   0.000000
      2       0.000000   0.000000   0.000000   0.000000   0.000000   0.000000
      3       0.000000   0.000000   0.000000   0.000000   0.000000   0.000000
      4       0.000000   0.000000   0.000000   0.000000   0.000000   0.000000
      5       0.000000   0.000000   0.000000   0.000000   0.000000   0.000000
      6       0.000000   0.000000   0.000000   0.000000   0.000000   0.000000
      7       0.000000   0.000000   0.000000   0.000000   0.000000   0.000000
      8       0.000000   0.000000   0.000000   0.000000   0.000000   0.000000
      9       0.000000   0.000000   0.000000   0.000000   0.000000   0.000000
     10       0.000000   0.000000   0.000000   0.000000   0.000000   0.000000
     11       0.000000   0.000000   0.000000   0.000000   0.000000   0.000000
     12       0.000000   0.000000   0.000000   0.000000   0.000000   0.000000
     13       0.000000   0.000000   0.000000   0.000000   0.000000   0.000000
     14       0.000000   0.000000   0.000000   0.000000   0.000000   0.000000
     15       0.000000   0.000000   0.000000   0.000000   0.000000   0.000000
     16       0.000000   0.000000   0.000000   0.000000   0.000000   0.000000
     17       0.000000   0.000000   0.000000   0.000000   0.000000   0.000000
     18       0.000000   0.000000   0.000000   0.000000   0.000000   0.000000
     19       0.000000   0.000000   0.000000   0.000000   0.000000   0.000000
     20       0.000000   0.000000   0.000000   0.000000   0.000000   0.000000
     21       0.000000   0.000000   0.000000   0.000000   0.000000   0.000000
     22       0.000000   0.000000   0.000000   0.000000   0.000000   0.000000
     23       0.000000   0.000000   0.000000   0.000000   0.000000   0.000000
                  6          7          8          9         10         11    
      0      -0.001578   0.220827   0.000584   0.074936  -0.004673  -0.126619
      1      -0.020033  -0.000985   0.005653   0.180264  -0.051847   0.137926
      2       0.044175   0.007381  -0.018462   0.087032   0.108097   0.057383
      3       0.001715  -0.144539  -0.005121   0.273732  -0.006402  -0.031927
      4       0.022399  -0.088725  -0.011077  -0.138582  -0.034559  -0.169883
      5      -0.049455  -0.045578   0.028350  -0.048966   0.080305  -0.078312
      6      -0.000090  -0.086290   0.002139  -0.259534   0.004995   0.267629
      7      -0.001530   0.156272  -0.004463  -0.080964   0.018008   0.068766
      8       0.003628   0.067667   0.014186  -0.046174  -0.036029   0.040222
      9      -0.000434   0.009250   0.006265  -0.131636   0.008037  -0.126262
     10      -0.005717  -0.136794   0.056028   0.004461   0.088298  -0.087411
     11       0.012758  -0.060144  -0.124936  -0.016029  -0.195573  -0.043122
     12       0.000228   0.141005  -0.023724  -0.080470   0.021685  -0.264887
     13       0.003927   0.239672  -0.373299   0.619379   0.291358   0.523075
     14      -0.009002   0.105426   0.797811   0.298014  -0.658267   0.233914
     15       0.095275  -0.381096   0.264693  -0.185315   0.398133   0.379240
     16      -0.321978   0.262386  -0.020399  -0.103543   0.030173   0.051322
     17      -0.493638   0.116826   0.104705  -0.046502   0.162787   0.044374
     18      -0.074012  -0.377686  -0.267181  -0.231115  -0.395675   0.377776
     19       0.584008   0.272101  -0.053211  -0.109981  -0.128042   0.056657
     20      -0.093741   0.095695   0.070513  -0.047957   0.062968   0.031698
     21      -0.017422   0.324917  -0.001927  -0.376115  -0.003647   0.339840
     22      -0.217158   0.417642  -0.081423  -0.155840  -0.088761   0.098329
     23       0.484943   0.198672   0.189685  -0.066560   0.201891   0.056753
                 12         13         14         15         16         17    
      0      -0.076031   0.000997  -0.025319   0.067231   0.041120   0.041412
      1       0.076571   0.013318   0.156515  -0.005186  -0.013934  -0.015911
      2       0.032316  -0.029773   0.070138   0.000026  -0.004726  -0.005730
      3       0.028339   0.001621  -0.028624   0.019199   0.002583   0.019061
      4       0.022742   0.019352  -0.086722  -0.023248  -0.035646  -0.005102
      5       0.011520  -0.041592  -0.040201  -0.009895  -0.015935  -0.001576
      6       0.034913   0.004961  -0.027604  -0.060223   0.152798   0.059451
      7      -0.148617   0.069463   0.053685  -0.048804  -0.010456   0.042794
      8      -0.065493  -0.155707   0.022877  -0.023955  -0.001809   0.020370
      9       0.050220  -0.006716   0.091302  -0.167341  -0.118544  -0.135051
     10      -0.011625  -0.091190  -0.059059   0.073839   0.069926   0.059081
     11      -0.004535   0.201829  -0.023079   0.027780   0.026482   0.021732
     12      -0.004567   0.000111   0.290583   0.197991   0.089773   0.090470
     13      -0.133674   0.003444  -0.787578  -0.412801  -0.172439  -0.176501
     14      -0.062125  -0.006968  -0.350953  -0.181392  -0.074816  -0.077005
     15      -0.450558   0.555766   0.040590   0.373283  -0.402820  -0.182880
     16       0.082055   0.156132  -0.046815   0.062296   0.285066  -0.250000
     17       0.105649   0.245863  -0.108144   0.329992   0.235845  -0.568232
     18      -0.447209  -0.565002   0.035103   0.390781  -0.363007  -0.201684
     19       0.145126  -0.271296  -0.113229   0.278712   0.352215  -0.593011
     20      -0.036342   0.012760   0.039292  -0.150517   0.026844   0.179213
     21       0.644881  -0.011516  -0.269087   0.377706  -0.425756   0.235081
     22       0.239592  -0.147918  -0.096094   0.224810  -0.386526   0.139120
     23       0.131474   0.331469  -0.052949   0.112984  -0.153935   0.080320
                 18         19         20         21         22         23    
      0       0.001617  -0.019463   0.000286   0.000003  -0.000337  -0.059589
      1       0.000615  -0.051871   0.000016   0.000021   0.000114  -0.015457
      2      -0.002767  -0.024111   0.000018  -0.000057   0.000042  -0.008965
      3       0.000330  -0.166176   0.000289   0.000000   0.000284   0.000148
      4       0.000133  -0.382383   0.000243  -0.000112   0.000845  -0.000981
      5      -0.002948  -0.178738   0.000113   0.000292   0.000390  -0.000438
      6       0.003335  -0.069273   0.044816  -0.002308   0.033665   0.000670
      7      -0.021221  -0.045397   0.024396  -0.038858  -0.081591   0.000132
      8       0.047743  -0.022929   0.011702   0.084932  -0.036509   0.000074
      9      -0.005374   0.321776  -0.003907  -0.000079  -0.001333  -0.001751
     10      -0.007977   0.598005  -0.000719  -0.000165  -0.001759   0.000669
     11       0.024168   0.281593  -0.000478   0.000273  -0.000842   0.000252
     12       0.003580  -0.151746  -0.000527   0.000061   0.001634   0.954006
     13      -0.002644   0.329715  -0.001802   0.000217   0.001082   0.254042
     14      -0.011034   0.144039  -0.000825  -0.000491   0.000562   0.146468
     15       0.386241  -0.047316  -0.134671   0.154546   0.069126   0.000309
     16      -0.231121  -0.081847  -0.527252   0.590500   0.255468  -0.001342
     17      -0.148521  -0.058020   0.321899  -0.346986  -0.161234   0.000536
     18      -0.409718  -0.049900  -0.098808  -0.117801   0.055031   0.000384
     19       0.285071  -0.097039  -0.106013  -0.131774   0.051415  -0.000510
     20       0.055446  -0.025386  -0.603595  -0.683222   0.317214  -0.001310
     21       0.013283   0.186694  -0.262591  -0.008404  -0.510206   0.001635
     22       0.284733   0.156975   0.348829   0.007490   0.669990  -0.000819
     23      -0.662047   0.076837   0.146713   0.011682   0.281663  -0.000332


-----------
IR SPECTRUM
-----------

 Mode   freq       eps      Int      T**2         TX        TY        TZ
       cm**-1   L/(mol*cm) km/mol    a.u.
----------------------------------------------------------------------------
  6:     89.18   0.000175    0.89  0.000613  ( 0.000986  0.009922 -0.022673)
  7:    465.25   0.001073    5.42  0.000720  (-0.003445  0.024505  0.010362)
  8:    574.14   0.016617   83.98  0.009032  (-0.000693 -0.039928  0.086239)
  9:    645.59   0.017581   88.85  0.008498  (-0.087642  0.027102  0.009082)
 10:    693.87   0.028972  146.41  0.013030  ( 0.004968  0.046764 -0.104012)
 11:    949.17   0.000747    3.77  0.000245  (-0.015631  0.000939  0.000512)
 12:   1098.59   0.012668   64.02  0.003599  ( 0.036479 -0.043746 -0.018819)
 13:   1158.14   0.005500   27.79  0.001482  (-0.001162 -0.015890  0.035043)
 14:   1330.55   0.064361  325.25  0.015095  ( 0.082794 -0.083632 -0.035297)
 15:   1449.77   0.011740   59.33  0.002527  (-0.033937  0.034313  0.014073)
 16:   1544.23   0.028638  144.72  0.005787  (-0.059162  0.044027  0.018672)
 17:   1548.67   0.015936   80.54  0.003211  (-0.056632  0.001842 -0.000844)
 18:   1557.97   0.002755   13.92  0.000552  (-0.001771  0.010992 -0.020687)
 19:   1984.10   0.143962  727.53  0.022643  ( 0.039676  0.131716  0.060986)
 20:   3203.44   0.000184    0.93  0.000018  ( 0.004130  0.000775  0.000504)
 21:   3292.55   0.000578    2.92  0.000055  (-0.000079 -0.003070  0.006734)
 22:   3334.30   0.001431    7.23  0.000134  ( 0.006741 -0.008628 -0.003751)
 23:   4067.44   0.048959  247.42  0.003756  ( 0.061054  0.003870  0.003694)

* The epsilon (eps) is given for a Dirac delta lineshape.
** The dipole moment derivative (T) already includes vibrational overlap.

The first frequency considered to be a vibration is 6
The total number of vibrations considered is 18


--------------------------
THERMOCHEMISTRY AT 298.15K
--------------------------

Temperature         ... 298.15 K
Pressure            ... 1.00 atm
Total Mass          ... 60.05 AMU

Throughout the following assumptions are being made:
  (1) The electronic state is orbitally nondegenerate
  (2) There are no thermally accessible electronically excited states
  (3) Hindered rotations indicated by low frequency modes are not
      treated as such but are treated as vibrations and this may
      cause some error
  (4) All equations used are the standard statistical mechanics
      equations for an ideal gas
  (5) All vibrations are strictly harmonic

freq.      89.18  E(vib)   ...       0.47 
freq.     465.25  E(vib)   ...       0.16 
freq.     574.14  E(vib)   ...       0.11 
freq.     645.59  E(vib)   ...       0.09 
freq.     693.87  E(vib)   ...       0.07 
freq.     949.17  E(vib)   ...       0.03 
freq.    1098.59  E(vib)   ...       0.02 
freq.    1158.14  E(vib)   ...       0.01 
freq.    1330.55  E(vib)   ...       0.01 
freq.    1449.77  E(vib)   ...       0.00 
freq.    1544.23  E(vib)   ...       0.00 
freq.    1548.67  E(vib)   ...       0.00 
freq.    1557.97  E(vib)   ...       0.00 
freq.    1984.10  E(vib)   ...       0.00 
freq.    3203.44  E(vib)   ...       0.00 
freq.    3292.55  E(vib)   ...       0.00 
freq.    3334.30  E(vib)   ...       0.00 
freq.    4067.44  E(vib)   ...       0.00 

------------
INNER ENERGY
------------

The inner energy is: U= E(el) + E(ZPE) + E(vib) + E(rot) + E(trans)
    E(el)   - is the total energy from the electronic structure calculation
              = E(kin-el) + E(nuc-el) + E(el-el) + E(nuc-nuc)
    E(ZPE)  - the the zero temperature vibrational energy from the frequency calculation
    E(vib)  - the the finite temperature correction to E(ZPE) due to population
              of excited vibrational states
    E(rot)  - is the rotational thermal energy
    E(trans)- is the translational thermal energy

Summary of contributions to the inner energy U:
Electronic energy                ...   -227.65352907 Eh
Zero point energy                ...      0.06603716 Eh      41.44 kcal/mol
Thermal vibrational correction   ...      0.00155139 Eh       0.97 kcal/mol
Thermal rotational correction    ...      0.00141627 Eh       0.89 kcal/mol
Thermal translational correction ...      0.00141627 Eh       0.89 kcal/mol
-----------------------------------------------------------------------
Total thermal energy                   -227.58310798 Eh


Summary of corrections to the electronic energy:
(perhaps to be used in another calculation)
Total thermal correction                  0.00438393 Eh       2.75 kcal/mol
Non-thermal (ZPE) correction              0.06603716 Eh      41.44 kcal/mol
-----------------------------------------------------------------------
Total correction                          0.07042109 Eh      44.19 kcal/mol


--------
ENTHALPY
--------

The enthalpy is H = U + kB*T
                kB is Boltzmann's constant
Total free energy                 ...   -227.58310798 Eh 
Thermal Enthalpy correction       ...      0.00094421 Eh       0.59 kcal/mol
-----------------------------------------------------------------------
Total Enthalpy                    ...   -227.58216377 Eh


Note: Only C1 symmetry has been detected, increase convergence thresholds 
      if your molecule has a higher symmetry. Symmetry factor of 1.0 is   
      used for the rotational entropy correction. 
 

Note: Rotational entropy computed according to Herzberg 
Infrared and Raman Spectra, Chapter V,1, Van Nostrand Reinhold, 1945 
Point Group:  C1, Symmetry Number:   1  
Rotational constants in cm-1:     0.392978     0.319812     0.182288 

Vibrational entropy computed according to the QRRHO of S. Grimme
Chem.Eur.J. 2012 18 9955


-------
ENTROPY
-------

The entropy contributions are T*S = T*(S(el)+S(vib)+S(rot)+S(trans))
     S(el)   - electronic entropy
     S(vib)  - vibrational entropy
     S(rot)  - rotational entropy
     S(trans)- translational entropy
The entropies will be listed as multiplied by the temperature to get
units of energy

Electronic entropy                ...      0.00000000 Eh      0.00 kcal/mol
Vibrational entropy               ...      0.00260364 Eh      1.63 kcal/mol
Rotational entropy                ...      0.01129351 Eh      7.09 kcal/mol
Translational entropy             ...      0.01814900 Eh     11.39 kcal/mol
-----------------------------------------------------------------------
Final entropy term                ...      0.03204615 Eh     20.11 kcal/mol

In case the symmetry of your molecule has not been determined correctly
or in case you have a reason to use a different symmetry number we print 
out the resulting rotational entropy values for sn=1,12 :
 --------------------------------------------------------
|  sn= 1 | S(rot)=       0.01129351 Eh      7.09 kcal/mol|
|  sn= 2 | S(rot)=       0.01063906 Eh      6.68 kcal/mol|
|  sn= 3 | S(rot)=       0.01025623 Eh      6.44 kcal/mol|
|  sn= 4 | S(rot)=       0.00998460 Eh      6.27 kcal/mol|
|  sn= 5 | S(rot)=       0.00977391 Eh      6.13 kcal/mol|
|  sn= 6 | S(rot)=       0.00960177 Eh      6.03 kcal/mol|
|  sn= 7 | S(rot)=       0.00945622 Eh      5.93 kcal/mol|
|  sn= 8 | S(rot)=       0.00933014 Eh      5.85 kcal/mol|
|  sn= 9 | S(rot)=       0.00921894 Eh      5.78 kcal/mol|
|  sn=10 | S(rot)=       0.00911946 Eh      5.72 kcal/mol|
|  sn=11 | S(rot)=       0.00902947 Eh      5.67 kcal/mol|
|  sn=12 | S(rot)=       0.00894731 Eh      5.61 kcal/mol|
 --------------------------------------------------------


-------------------
GIBBS FREE ENERGY
-------------------

The Gibbs free energy is G = H - T*S

Total enthalpy                    ...   -227.58216377 Eh 
Total entropy correction          ...     -0.03204615 Eh    -20.11 kcal/mol
-----------------------------------------------------------------------
Final Gibbs free energy         ...   -227.61420992 Eh

For completeness - the Gibbs free energy minus the electronic energy
G-E(el)                           ...      0.03931915 Eh     24.67 kcal/mol


Timings for individual modules:

Sum of individual times         ...      108.023 sec (=   1.800 min)
GTO integral calculation        ...        2.519 sec (=   0.042 min)   2.3 %
SCF iterations                  ...       63.310 sec (=   1.055 min)  58.6 %
SCF Gradient evaluation         ...       21.492 sec (=   0.358 min)  19.9 %
Geometry relaxation             ...        0.568 sec (=   0.009 min)   0.5 %
Analytical frequency calculation...       20.133 sec (=   0.336 min)  18.6 %
                             ****ORCA TERMINATED NORMALLY****
TOTAL RUN TIME: 0 days 0 hours 1 minutes 49 seconds 670 msec
